% Model:              Bepi_BOX.mph
% Version:            COMSOL 6.0.0.405
% Date:               Dec 6 2022, 17:32
% Dimension:          3
% Nodes:              1295
% Elements:           2118
% Expressions:        1
% Description:        Material settings
% Length unit:        m
% Coordinates
-0.1236147782607662       -0.016557218778544366    0.1595424810188851
-0.1245092830097746       -0.016464268383478586    0.18814977980314168
-0.12369465340118199      0.0174510511379825       0.156033617511267
-0.124695236671237        0.0175550244375667       0.18803343036498
-0.123295277699106        -0.152590298444653       0.17357793504935598
-0.123765468363923        -0.15254143966765998     0.188615177555786
-0.12337515283952072      -0.11858202852812583     0.17006907154173848
-0.12395142202538591      -0.11852214684661463     0.18849882811762492
-0.12345502797993588      -0.08457375861159869     0.1665602080341207
-0.1241373756868488       -0.08450285402556929     0.18838247867946384
-0.12353490312035104      -0.05056548869507153     0.1630513445265029
-0.1243233293483117       -0.050483561204523936    0.18826612924130276
-0.11623976376023426      0.01746742494504124      0.14890647791595416
-0.11323956858025108      0.017617619204616023     0.18802660852966274
-0.10878487411928645      0.017483798752099954     0.14177933832064113
-0.10178390048926524      0.01768021397166535      0.1880197866943445
-0.10132998447833866      0.017500172559158676     0.13465219872532813
-0.09032823239827938      0.017742808738714675     0.18801296485902624
-0.09387509483739084      0.01751654636621739      0.12752505913001505
-0.0788725643072935       0.01780540350576399      0.1880061430237079
-0.08642020519644303      0.01753292017327611      0.12039791953470202
-0.06741689621630766      0.01786799827281331      0.18799932118838966
-0.07896531555549523      0.01754929398033483      0.11327077993938901
-0.055961228125321796     0.017930593039862632     0.18799249935307139
-0.07151042591454743      0.017565667787393543     0.10614364034407595
-0.04450556003433593      0.017993187806911948     0.1879856775177531
-0.06405553627359961      0.017582041594452258     0.09901650074876292
-0.033049891943350077     0.018055782573961274     0.18797885568243483
-0.056600646632651797     0.017598415401511        0.0918893611534499
-0.0215942238523643       0.0181183773410106       0.187972033847116
-0.11468985508143405      -0.016537616212015688    0.1510099370859526
-0.10576493190210148      -0.0165180136454868      0.14247739315302038
-0.09684000872276892      -0.016498411078957914    0.13394484922008817
-0.1100401290450341       -0.11855273968318697     0.1573203145959483
-0.10849022036623401      -0.152557780840244       0.15942377376594713
-0.11159003772383409      -0.08454769852612988     0.15521685542594973
-0.1131399464026341       -0.050542657369072805    0.1531133962559512
-0.10274498968491673      -0.05051982604307369     0.14317544798539977
-0.09235003296719932      -0.05049699471707465     0.13323749971484836
-0.08791508554343633      -0.016478808512429       0.12541230528715594
-0.07899016236410372      -0.01645920594590014     0.11687976135422372
-0.09670510525054712      -0.1185234508382475      0.1445715576501585
-0.09368516303336222      -0.15252526323583437     0.14526961248253814
-0.09972504746773192      -0.08452163844066062     0.14387350281777916
-0.08337008145606012      -0.11849416199330806     0.13182280070436872
-0.0788801057004904       -0.15249274563142473     0.13111545119912912
-0.08195507624948195      -0.05047416339107558     0.12329955144429697
-0.08786005721162972      -0.08449557835519132     0.1325301502096085
-0.07006523918477116      -0.01643960337937128     0.10834721742129154
-0.06413717126494149      -0.009869061593090978    0.10198846884487277
-0.05820910334511183      -0.003298519806810535    0.09562972026845398
-0.07156011953176455      -0.050451332065076515    0.11336160317374555
-0.06116516281404718      -0.05042850073907748     0.10342365490319416
-0.05676391661533563      -0.0373037909735755      0.09783329734566963
-0.07599506695552755      -0.08446951826972209     0.12118679760143791
-0.07003505766157314      -0.11846487314836864     0.11907404375857893
-0.06407504836761861      -0.15246022802701514     0.11696128991572016
-0.06413007669942535      -0.08444345818425286     0.10984344499326733
-0.052265086443323186     -0.08441739809878362     0.09850009238509674
-0.05236267041662411      -0.02417908120807344     0.0922429397881451
-0.05228103542528215      0.003272021979469769     0.08927097169203521
-0.04796142421791257      -0.011054371442571459    0.08665258223062058
-0.04939066196572977      -0.06473852035406001     0.09367812584646648
-0.046516237488136374     -0.045059642609336356    0.08885615930783622
-0.04364181301054296      -0.025380764864612715    0.08403419276920594
-0.05717492689223628      0.03532678769236099      0.09056930598039327
-0.057462067022028496     0.044190973837785995     0.089909278393865
-0.052812147218806914     0.030569605293416516     0.08690085375325327
-0.05307770311556924      0.04421839695038983      0.0857157947838623
-0.04844936754537756      0.025812422894472026     0.08323240152611326
-0.048693339209109975     0.044245820062993685     0.08152231117385958
-0.05688778676244403      0.026462601546935992     0.09122933356692156
-0.05254659132204452      0.016920813636443155     0.08808591272264421
-0.04820539588164506      0.007379025725950338     0.08494249187836692
-0.05670003386708616      -0.11843558430342917     0.10632528681278912
-0.04926999103474684      -0.15242771042260553     0.10280712863231116
-0.043365010072599186     -0.11840629545848981     0.09357652986699934
-0.044086587871948225     0.02105524049552765      0.07956394929897324
-0.044308975302650724     0.04427324317559753      0.07732882756385684
-0.04386420044124559      -0.002162762184542588    0.08179907103408958
-0.03972380819851888      0.01629805809658319      0.07589549707183323
-0.03992461139619147      0.044300666288201396     0.07313534395385415
-0.04201740731612392      -0.09217324973454455     0.08952295434726333
-0.034464933701875        -0.152395192818196       0.0886529673489022
-0.03952300500084613      -0.011704550095035432    0.0786556501898123
-0.040669804559648644     -0.06594020401059925     0.08546937882752734
-0.039322201803173376     -0.03970715828665397     0.08141580330779133
-0.035361028525089315     0.011540875697638703     0.07222704484469344
-0.0355402474897322       0.0443280894008053       0.0689418603438514
-0.03500259059580359      -0.054033551708695185    0.07879741384637692
-0.035181809560446455     -0.021246338005528238    0.07551222934553518
-0.03464415266651788      -0.11960797911502909     0.08536778284806044
-0.03482337163116074      -0.08682076541186212     0.08208259834721868
-0.05425060824740056      0.044218401183502565     0.08245671375634457
-0.06016843121517572      0.044190828800575344     0.08248165703675035
-0.051357355332081786     0.04423893628665273      0.0782340697481379
-0.05385697000598136      0.04423561041373216      0.07327886567597765
-0.0398085939309133       0.044508564487152125     -0.05061993170569355
-0.049989161060488396     0.04444048241811022      -0.038253526091888965
-0.043200729068791674     0.04451143052383467      -0.06174864969414566
-0.07492056594573834      0.04434988441865004      -0.05340470082755718
-0.05842991315490749      0.044231535405009514     0.06301419196935404
-0.06460620948969156      0.04419059097486647      0.07030216664392094
-0.03635900482992243      0.04449540172451132      -0.033186421745697844
-0.04290245434034484      0.04445235600840577      -0.025663757329225434
-0.0477731632270037       0.04426011464614299      0.07554590170774722
-0.048056833057080806     0.04426642943479551      0.07098951659349705
-0.05098926609566157      0.04427087708774028      0.06019321790439448
-0.029324961754032958     0.04452501757099327      -0.031331771491471594
-0.019067392764803327     0.04460040160158706      -0.047842324936513705
-0.011480892191845019     0.044672976629019305     -0.07009259856073415
-0.057790275781276754     0.04437831179401529      -0.022808661288109225
-0.07612018096676346      0.0442896796322075       -0.020804112183868708
-0.09481549799144168      0.04418897202389426      -0.012607279552197505
-0.10664040282268501      0.0441883383134654       -0.045060751960968704
-0.06285119610497863      0.0442356335168126       0.04829273486690569
-0.0719171964721747       0.04419019917055495      0.050237149825349034
-0.0631470063623966       0.04426049306914772      0.03263479243251913
-0.08259335427289376      0.04418962702281801      0.02093641569158398
-0.02283370245250302      0.044547810732169166     -0.0269122510637838
-0.012644783334232454     0.044601600012930315     -0.03072527354813915
-0.04992819524116751      0.04439804541781317      -0.012757087824959596
-0.0355410717593417       0.0444788854055373       -0.021058204869987
-0.04945868081854732      0.044298795042915444     0.0477809270249318
-0.04389785234801427      0.044302851293396554     0.0607996457128937
0.008890923515797913      0.0447366560468208       -0.051535563892029304
0.024539676376396244      0.044824279612970065     -0.060382346691164185
0.020238944685101633      0.044834522734203935     -0.0784365474273226
-0.004444275203644682     0.04465789741803387      -0.04155598508507851
-0.05796129989905601      0.04432815204589393      0.006652735429439247
-0.05275014621962974      0.04431802370133013      0.02716620924444021
-0.003132599862731747     0.04464744024275907      -0.03167310602159071
0.04693580550343507       0.0449166795610686       -0.05334576496210891
0.051958781562048         0.044996068839388594     -0.086780496293911
-0.024451281429767532     0.04453047670133503      -0.02105817399809838
-0.013361491100193378     0.044582067997132754     -0.02105814312620974
-0.035540906905419736     0.04444872620459094      -0.003058191827219304
-0.03554041234365409      0.04435824860175174      0.05094184730108371
0.009840474336474975      0.044712399625153        -0.034422479228442236
0.031399110644274086      0.04482110322492522      -0.03944149806031847
0.018948031711853913      0.04474686942517701      -0.0297076726967709
-0.035540742051497855     0.04441856700364454      0.014941821215548365
-0.03554057719757597      0.04438840780269814      0.03294183425831604
0.07769633307419486       0.04505331637563101      -0.049486908531982635
0.0834443290863702        0.045128220999388236     -0.0782321093771374
-0.0022717007706192487    0.04463365929293046      -0.021058112254321092
0.04267460335976769       0.04485917385004724      -0.030856486890374846
0.05470915781223114       0.04492323830959102      -0.0356775408908045
0.06781692606860427       0.0449815979263762       -0.03411407873539186
0.01990787988852907       0.044736841884525855     -0.021058050510543797
0.008818089558954913      0.044685250588728145     -0.021058081382432443
0.03099767021810321       0.04478843318032355      -0.021058019638655143
0.04208746054767736       0.04484002447612126      -0.021057988766766504
0.07542400285730967       0.04500917100611601      -0.029449248371522636
0.08480195603567882       0.04506205230081088      -0.034972003932666584
0.10893445298788647       0.04519523016660133      -0.04745141840757683
0.1149298766106924        0.04526037315938788      -0.06968372246036379
0.053177250877251524      0.04489161577191896      -0.021057957894877855
0.06426704120682566       0.044943207067716665     -0.02105792702298921
0.1002421311699198        0.045131100009024934     -0.033311492655205076
0.1840171262578028        0.04549900455955601      -0.02028346945605992
0.18930955470153926       0.04554179591172282      -0.031127767309823286
0.19651869781578923       0.04553736614632714      -0.008467918757980612
0.20295260849972416       0.04559709789285698      -0.0262532402340118
0.16038126627400728       0.04527345273679379      0.04870529493756204
0.15839732721295355       0.045290825398351706     0.032828598095255325
0.17078305508004965       0.045298439160207815     0.06267336714614417
0.17721696576398455       0.04535817090673765      0.044888045670112973
0.1779009716593368        0.04552467747938716      -0.05258694862681658
0.209386519183659         0.045656829639386796     -0.044038561710043
0.13234681805663706       0.04530117203694721      -0.04567533540805113
0.14641542413501457       0.04539252531938752      -0.061135335543590186
0.17286582402017941       0.045461965049157275     -0.02913905538064505
0.07535683153639984       0.044994798363514374     -0.021057896151100562
0.08644662186597399       0.04504638965931207      -0.021057865279211913
0.10847021746150974       0.0451607632521581       -0.028169885355129657
0.11649354587902548       0.04520529852825457      -0.03247268304611723
0.09753641219554815       0.04509798095510979      -0.021057834407323273
0.17956520893353867       0.045461900446150956     -0.010499750996479835
0.16976435229094744       0.045420837844298075     -0.013204790114457443
0.19008478713185434       0.04547763439979731      0.009317402718050581
0.1564133881518999        0.04530819805990962      0.016951901252948626
0.18365087644791941       0.04541790265326748      0.027102724194081787
0.12978151860578935       0.04526601603538492      -0.03181611721356536
0.16274719776585672       0.04543433111676012      -0.04074084960658344
0.1519448936513373        0.04538916262347132      -0.043775923471685046
0.1421071226340786        0.0453363508210323       -0.039571319916042534
0.16232053520316986       0.04540361773961073      -0.023595174535145685
0.1653243032281576        0.04543052080589176      -0.03131149019541656
0.15298542114099298       0.0453454551295015       -0.0148014924321846
0.1529854095081472        0.04534758330044846      -0.016071655553212848
0.15627105533556657       0.04535696562133221      -0.012548644449306675
0.154879361966136         0.045356028745229544     -0.01585351698503575
0.1559571944378022        0.04536406269992905      -0.017655739393760337
0.16031572852897735       0.04538058687876769      -0.015416258787896441
0.1590753475307593        0.045387629729753735     -0.02306345976514522
0.10862620252512224       0.04514957225090747      -0.021057803535434613
0.14178603561430536       0.04532035752177342      -0.030917723931493838
0.11971599285469642       0.045201163546705184     -0.02105777266354597
0.15442944909084624       0.04532557072146755      0.0010752044106419236
0.152445510029793         0.045342943383025504     -0.0148014924316648
0.13080578318427058       0.04525275484250289      -0.021057741791657335
0.15389086932810564       0.0453718759028203       -0.02805592251677934
0.1529853919274783        0.04535079959596077      -0.0179912475634134
0.15523213893295384       0.0453650992916752       -0.020287502481023182
0.14189557351384469       0.04530434613830059      -0.021057710919768678
0.152985363843419         0.0453559374340983       -0.021057680047879997
-0.035361306258851005     0.01159168570102892      -0.0023112076303896736
-0.035361375692291405     0.011604388201876537     -0.020945770749160465
-0.035361236825410605     0.011578983200181414     0.01632335548838111
-0.03536109795852979      0.011553578198486403     0.053592481725922674
-0.0353611673919702       0.011566280699333908     0.03495791860715188
-0.035181783573405456     -0.021251092204779276    0.05624311615076137
-0.03500246918828112      -0.05405576260804483     0.05889375057560006
-0.03464384041803245      -0.11966510341457604     0.06419501942527751
-0.034464526032908074     -0.15246977381784163     0.06684565385011622
-0.034823154803156786     -0.08686043301131043     0.06154438500043879
-0.03518170561228224      -0.021265354802532832    -0.001564223433560101
-0.035181679625241165     -0.02127010900178397     -0.020833336628333952
-0.035002104965713474     -0.05412239530609467     -8.172392367305249E-4
-0.035001983558190924     -0.054144606205444486    -0.020720902507507438
-0.03518175758636439      -0.021255846404030443    0.036974002955987545
-0.03518173159932331      -0.021260600603281582    0.017704889761213725
-0.03500222637323602      -0.05410018440674466     0.019086424034046333
-0.035002347780758565     -0.054077973507394766    0.03899008730482321
-0.03464290367257594      -0.11983647631321831     6.767291569286238E-4
-0.034642591424090444     -0.1198936006127655      -0.020496034265854415
-0.03446330302600715      -0.15269351681678014     0.0014237133537581906
-0.034462895357040196     -0.152768097816426       -0.0203836001450279
-0.03482250431914471      -0.08697943580965649     -7.025503990096618E-5
-0.0348222874911407       -0.087019103409105       -0.020608468386680935
-0.03464321592106144      -0.11977935201367089     0.021849492579711586
-0.03446371069497412      -0.15261893581713395     0.0232310268525442
-0.034643528169546946     -0.11972222771412347     0.043022256002494555
-0.0344641183639411       -0.1525443548174878      0.04503834035133021
-0.03482272114714873      -0.08693976821020778     0.020467958306878944
-0.034822937975152755     -0.0869001006107591      0.04100617165365886
-0.00783339092975311      0.0441936334963677       0.226115268482599
-0.014651611565517895     0.044193268099978894     0.20740264978184894
0.004085883998627866      0.04424894573100026      0.22619762825747045
-0.001341636208282454     0.044255198026043614     0.20739671211159474
0.016005158927008878      0.04430425796563287      0.22627998803234176
0.011968339148953011      0.044317127952108355     0.20739077444134063
0.027924433855389896      0.044359570200265465     0.22636234780721295
0.025278314506188462      0.0443790578781731       0.20738483677108638
0.039843708783770915      0.04441488243489808      0.2264447075820843
0.038588289863423914      0.04444098780423785      0.20737889910083238
0.051762983712151926      0.044470194669530685     0.2265270673569556
0.05189826522065939       0.04450291773030259      0.20737296143057835
0.06368225864053295       0.04452550690416329      0.22660942713182686
0.06520824057789483       0.04456484765636734      0.20736702376032418
0.07560153356891396       0.04458081913879589      0.2266917869066981
0.0785182159351303        0.04462677758243209      0.20736108609007006
0.08752080849729499       0.044636131373428506     0.22677414668156942
0.09182819129236576       0.04468870750849683      0.20735514841981595
0.09944008342567599       0.044691443608061106     0.2268565064564407
0.10513816664960117       0.04475063743456158      0.2073492107495618
0.111359358354057         0.044746755842693706     0.226938866231312
0.11844814200683677       0.04481256736062635      0.20734327307930805
-0.0214698322012828       0.0441929027035901       0.188690031081099
-0.006769156415192826     0.044261450321086936     0.1885957959657192
0.007931519370897143      0.04432999793858382      0.18850156085033964
0.022632195156987108      0.04439854555608069      0.18840732573496008
0.03733287094307709       0.044467093173577596     0.18831309061958057
0.05203354672916705       0.04453564079107448      0.18821885550420098
0.125536925659617         0.044878378878559        0.18774767992730398
0.11083624987352692       0.044809831261062034     0.18784191504268286
0.09613557408743698       0.04474128364356515      0.18793615015806242
0.06673422251525703       0.044604188408571374     0.1881246203888215
0.081434898301347         0.04467273602606826      0.18803038527344196
0.19646482041707508       0.01920656318956514      0.1576361359941323
0.19334851294990502       0.01929284315411043      0.187844035729357
0.22797875077409302       0.0193633802150609       0.153121061098973
0.227197231335783         0.0194777954960824       0.187823878861967
0.20380497624046906       0.019175694325857903     0.13687913189724685
0.1830434772266688        0.019071861207614362     0.1397012126070205
0.16495445513589158       0.01904972464053106      0.1621392198175865
0.15949979456402696       0.0191078908121384       0.1878641925967461
0.13338907627199592       0.01889152874416761      0.16633335484256118
0.125642185302529         0.0189224201585262       0.187747010557862
0.16228092241145742       0.018967979064224403     0.14251064632254276
0.1697172896428074        0.01893759235607918      0.12174085082454739
0.15979446153047694       0.018887088884387133     0.12283319668880359
0.179631201706845         0.018988008436654703     0.12063720269552099
0.1411359672414625        0.01886063732980894      0.14491969912726033
0.148882858210929         0.018829745915450263     0.12350604341195945
0.17229891534567254       0.018900901181012182     0.10688671308359673
0.16507350066667684       0.01885360844394853      0.10460674371268533
0.17952426138394825       0.018948193248279437     0.10916659631737106
0.17488314791738674       0.01886412889049833      0.0920046916932055
0.1703442768449949        0.01881983372207045      0.0863074522310909
0.179417321061051         0.018908378059904002     0.0976959899392211
0.164376640149862         0.018767963086732897     0.0806787319813577
0.15662974918039554       0.018798854501091592     0.10209238769665858
0.1701346041737672        0.018770595704805278     0.07224590494555008
0.17673347334090206       0.018833345274545922     0.0800466482804822
0.16238811846318418       0.018702668239590624     0.06476536217602936
0.16039959677650595       0.01863737339244843      0.0488519923707011
0.16806700976627054       0.0186876161137426       0.05128808774782746
0.183302035354433         0.0188958704608138       0.0878302222941563
0.15841107508982774       0.01857207854530624      0.03293862256537282
0.16592618285023          0.018604657690226737     0.030453502413550295
0.17480020058792595       0.01873177213499666      0.053437605048399124
0.17281273567009206       0.018630158210950893     0.026903248655255497
0.1815129930541479        0.018775820351141965     0.05558820267492404
0.179723950753862         0.018655770241470002     0.023346183055691798
0.16438557451988914       0.01855445563830157      0.018237229028673373
0.15642255340314956       0.01850678369816405      0.01702525276004456
0.1721070186404865        0.018599041425810075     0.01893294493570332
0.17979024101883798       0.0186434283308665       0.0196315971056817
0.15874872529274392       0.018467123661241217     0.0017113275912041042
0.1544340317164713        0.018441488851021856     0.0011118829547162891
0.15313281792165098       0.018379950913808        -0.0148014868513894
0.152445510029793         0.018376194003879697     -0.0148014868506119
0.162615435375185         0.01848804140800621      0.0016475374654589764
0.16646154497481494       0.018508853138637284     0.0015856737890885002
0.15313283342622133       0.01837711443010797      -0.015630868189447113
0.15313284893079201       0.018374277946408        -0.0164602495275048
0.16664749863627842       -0.01551043968240805     0.0017020232272495373
0.17997619468030143       -0.015375864490178581    0.019747946543842775
0.16683345229774132       -0.04952973250345339     0.0018183726654106237
0.18016214834176433       -0.04939515731122393     0.019864295982003854
0.15331880259225542       -0.015645014874637597    -0.016343900089343725
0.1670194059592042        -0.08354902532449864     0.0019347221035716875
0.1803481020032272        -0.08341445013226928     0.019980645420164936
0.15350475625371832       -0.04966430769568295     -0.016227550651182646
0.1672053596206671        -0.11756831814554396     0.0020510715417327643
0.1805340556646901        -0.11743374295331463     0.020096994858326018
0.1536907099151812        -0.0836836005167283      -0.016111201213021564
0.16739131328213          -0.15158761096658924     0.002167420979893869
0.180720009326153         -0.15145303577435998     0.0202133442964871
0.1538766635766441        -0.11770289333777365     -0.015994851774860482
0.154062617238107         -0.151722186158819       -0.0158785023366994
0.17986436814426893       -0.015013706491246991    0.12581767719332967
0.17973382143339145       -0.015062310626194201    0.11181500828535593
0.17960327472251444       -0.015110914761141597    0.09781233937738217
0.1800975345816928        -0.049015421419148976    0.13099815169113768
0.1799433814828348        -0.049072814500667916    0.11446342025334047
0.1803307010191167        -0.08301713634705095     0.13617862618894566
0.1801529415322782        -0.08308331837514159     0.11711183222132499
0.17978922838397735       -0.04913020758218695     0.09792868881554324
0.18056386745654057       -0.11701885127495293     0.14135910068675367
0.1803625015817216        -0.11709382224961526     0.11976024418930953
0.180797033893964         -0.151020566202855       0.146539575184561
0.18057206163116474       -0.151104326124089       0.12240865615729371
0.17997518204544022       -0.0831495004032323      0.09804503825370434
0.18016113570690312       -0.11716879322427765     0.09816138769186541
0.18034708936836602       -0.151188086045323       0.0982777371300265
0.1834879890158964        -0.015123422360231592    0.08794657173231737
0.18367394267735931       -0.04914271518127694     0.08806292117047845
0.1838598963388222        -0.08316200800232229     0.08817927060863955
0.1840458500002851        -0.11718130082336764     0.08829562004680062
0.184231803661748         -0.151200593644413       0.0884119694849617
0.20278671042343918       -0.014835736758497926    0.1412187913188115
0.2257090527026097        -0.014657767025749169    0.15661990544429305
0.20176844460640928       -0.0488471678428539      0.14555845074037546
0.2234393546311259        -0.04867891426655913     0.16011874978961296
0.19871364715531903       -0.15088146109592174     0.15857742900506652
0.19973191297234938       -0.11687003001156573     0.1542377695835033
0.216630260416674         -0.15074235598898902     0.17061528282557198
0.21889995848815832       -0.11672120874817901     0.1671164384802527
0.20075017878937929       -0.0828585989272098      0.14989811016193935
0.2211696565596421        -0.08270006150736905     0.1636175941349328
0.18169894671561043       -0.015243472469903459    0.05570455211308513
0.1818849003770733        -0.04926276529094886     0.055820901551246215
0.17990990441532442       -0.0153635225795756      0.02346253249385287
0.1820708540385362        -0.08328205811199418     0.05593725098940731
0.1822568076999991        -0.11730135093303953     0.05605360042756838
0.18244276136146226       -0.15132064375408488     0.05616994986572944
0.18009585807678732       -0.04938281540062095     0.02357888193201395
0.1802818117382502        -0.0834021082216663      0.023695231370175034
0.1804677653997131        -0.11742140104271165     0.023811580808336116
0.180653719061176         -0.151440693863757       0.023927930246497198
0.22281012127686695       -0.048586793830997635    0.188059411726897
0.22500367630632503       -0.014554499167457543    0.18794164529443244
0.21622945618849299       -0.150683677821618       0.18841271102429
0.21842301121795088       -0.11665138315807785     0.18829494459182622
0.22061656624740894       -0.08261908849453775     0.1881771781593616
0.16236520533506094       0.04525608007523588      0.06458199177986874
0.164349144396115         0.045238707413678005     0.0804586886221754
0.08401662443976578       0.018695648634917374     0.1879689161223483
0.08831612091167637       0.018719209601376862     0.1879862802434497
0.0746099871738528        0.01864459066903881      0.18807414009054563
0.040214015398567886      0.01845610293736277      0.18793522712173436
0.04719771969820563       0.018495352804362708     0.1882498597847374
0.03349158596038206       0.018420733872024662     0.18833771963183332
0.06090385343602922       0.018569971736700764     0.18816199993764152
0.006079318484734898      0.01827149600734856      0.18851343932602505
-0.00762681525308868      0.018196877075010512     0.18860129917312096
0.009309895773101842      0.01828724013918668      0.18795363048442498
0.019785452222558477      0.01834611493968661      0.1884255794789292
0.1020222546495           0.018793828533715        0.18789842039635402
-0.0213329489909123       0.0181222581426725       0.188689159020217
0.07111813502403395       0.01862496573553886      0.18791682375904384
0.15285603212538304       0.042971536590177876     -0.01480149194087713
0.15300389707104772       0.04196537608329057      -0.014801491732641621
0.15299479125548426       0.0436312395225527       -0.014801492077409611
0.15286703538436494       0.03950133830691717      -0.014801491222683033
0.153018429161209         0.039306802831177316     -0.014801491182421878
0.1530389586450519        0.03555103638472015      -0.01480149040512644
0.15298908666494707       0.04467486584526869      -0.014801492293399075
0.1528424815403426        0.03133124787242222      -0.01480148953179674
0.15297851266095422       0.019780770291868713     -0.01480148714130371
0.15312814995716242       0.019233931682888936     -0.014801487028129709
0.15312088684660974       0.020562681451722298     -0.01480148730312847
0.15288899057747812       0.021069045383305268     -0.014801487407925813
0.15288537092162258       0.02229106606800214      -0.014801487660835869
0.15310929340223098       0.022683644147607027     -0.014801487742084046
0.15309078810750143       0.026069095314266866     -0.014801488442738833
0.15306498394045953       0.03078983868492268      -0.014801489419746412
0.15299185031365942       0.044169270128187665     -0.015453190870025436
0.1529984795505439        0.042956484378340265     -0.015726034990095762
0.15299235193263494       0.044077501444106215     -0.01618979063596577
0.15300824968981622       0.041169086237361596     -0.015534457998377075
0.15299888293256694       0.04288268765365469      -0.017032519103414863
0.15312647555019993       0.01954025606659268      -0.015325326521814628