% Model:              Bepi_BOX.mph
% Version:            COMSOL 6.0.0.405
% Date:               Dec 13 2022, 15:17
% Dimension:          3
% Nodes:              2536
% Elements:           3918
% Expressions:        1
% Description:        Material settings
% Length unit:        m
% Coordinates
-14.247835850715585       1.2098672389984144       -0.4055117218464219
-14.247835850715584       1.2098672389984144       -0.5154534369707104
-14.247835850715585       1.1639669939875603       -0.4055117218464223
-14.247835850715584       1.1639669939875599       -0.5154534369707104
-14.247835850715584       1.2098672389984144       1.224666532874111
-14.247835850715585       1.2098672389984146       1.1147248177498226
-14.247835850715584       1.1639669939875599       1.224666532874111
-14.247835850715584       1.1639669939875599       1.1147248177498228
-14.247835850715585       1.16396699398756         -0.24106885284095625
-14.247835850715584       1.2098672389984142       -0.24106885284095547
-14.247835850715584       1.1639669939875599       0.020461987663428056
-14.247835850715585       1.2098672389984144       0.9502819487443565
-14.247835850715584       1.16396699398756         0.9502819487443576
-14.247835850715585       1.2098672389984142       0.6887511082399767
-14.247835850715582       1.1639669939875599       0.6887511082399758
-14.24783585071558        1.2098672389984142       0.35460654795170243
-14.247835850715584       1.1639669939875597       0.3546065479517017
-14.247835850715584       1.2098672389984144       0.020461987663426127
-14.129593109854556       1.2098672389984144       -0.5154534369707104
-14.129593109854556       1.1639669939875597       -0.5154534369707104
-13.936165027986332       1.2098672389984144       -0.5154534369707106
-13.936165027986332       1.1639669939875599       -0.5154534369707106
-13.618786429150353       1.2098672389984144       -0.5154534369707104
-13.618786429150356       1.1639669939875599       -0.5154534369707104
-13.189160666284046       1.2098672389984142       -0.5154534369707104
-13.189160666284053       1.16396699398756         -0.5154534369707104
-12.706420548277013       1.2098672389984144       -0.5154534369707104
-12.70642054827702        1.16396699398756         -0.5154534369707104
-12.18734502496311        1.2098672389984144       -0.5154534369707104
-12.187345024963113       1.1639669939875599       -0.5154534369707104
-11.656861555982358       1.2098672389984144       -0.5154534369707104
-11.656861555982356       1.1639669939875597       -0.5154534369707104
-11.125452730486547       1.2098672389984142       -0.5154534369707103
-11.125452730486522       1.1639669939875597       -0.5154534369707104
-10.594043843255463       1.2098672389984144       -0.5154534369707104
-10.59404384325544        1.1639669939875597       -0.5154534369707104
-10.062634956024379       1.2098672389984144       -0.5154534369707104
-10.062634956024358       1.1639669939875599       -0.5154534369707104
-9.531226068793293        1.2098672389984144       -0.5154534369707104
-9.531226068793273        1.1639669939875599       -0.5154534369707104
-8.99981718156221         1.2098672389984146       -0.5154534369707106
-8.999817181562191        1.16396699398756         -0.5154534369707106
-8.468408294331127        1.2098672389984146       -0.5154534369707104
-8.468408294331109        1.16396699398756         -0.5154534369707104
-7.936999407100042        1.2098672389984144       -0.5154534369707104
-7.936999407100027        1.1639669939875599       -0.5154534369707104
-7.405590519868959        1.2098672389984144       -0.5154534369707104
-7.405590519868943        1.1639669939875599       -0.5154534369707104
-6.874181632637869        1.209867238998414        -0.5154534369707103
-6.8741816326378595       1.1639669939875599       -0.5154534369707104
-6.342772745406788        1.209867238998414        -0.5154534369707103
-6.342772745406777        1.1639669939875599       -0.5154534369707106
-5.811363858175706        1.2098672389984144       -0.5154534369707106
-5.811363858175693        1.1639669939875599       -0.5154534369707103
-5.279954970944617        1.2098672389984144       -0.5154534369707104
-5.279954970944607        1.1639669939875599       -0.5154534369707104
-4.748546145448729        1.2098672389984144       -0.5154534369707104
-4.748546145448789        1.1639669939875599       -0.5154534369707104
-4.218062676467948        1.1639669939875597       -0.5154534369707104
-4.218062676467954        1.2098672389984142       -0.5154534369707103
-2.2758145915766157       1.1639669939875599       -0.5154534369707104
-2.2758145915766157       1.2098672389984144       -0.5154534369707104
-2.1575718507156387       1.1639669939875599       -0.5154534369707104
-2.1575718507156387       1.2098672389984144       -0.5154534369707104
-3.698987153154056        1.1639669939875599       -0.5154534369707104
-3.6989871531540603       1.2098672389984144       -0.5154534369707103
-3.2162470351470476       1.2098672389984142       -0.5154534369707104
-3.2162470351470445       1.1639669939875599       -0.5154534369707104
-2.7866212722807777       1.2098672389984144       -0.5154534369707104
-2.7866212722807724       1.1639669939875599       -0.5154534369707104
-2.4692426734448265       1.2098672389984144       -0.5154534369707104
-2.4692426734448265       1.1639669939875599       -0.5154534369707104
-14.129593109854554       1.2098672389984142       1.2246665328741109
-14.129593109854554       1.1639669939875594       1.2246665328741109
-13.936165027986332       1.2098672389984144       1.2246665328741109
-13.936165027986332       1.1639669939875597       1.2246665328741109
-13.618786429150353       1.2098672389984142       1.2246665328741109
-13.618786429150353       1.1639669939875597       1.2246665328741109
-13.189160666284053       1.2098672389984144       1.224666532874111
-13.189160666284053       1.16396699398756         1.224666532874111
-12.70642054827702        1.2098672389984144       1.224666532874111
-12.70642054827702        1.1639669939875599       1.224666532874111
-12.187345024963111       1.2098672389984144       1.224666532874111
-12.187345024963111       1.1639669939875597       1.224666532874111
-11.656861555982358       1.2098672389984144       1.2246665328741113
-11.656861555982358       1.16396699398756         1.2246665328741113
-11.125452730486524       1.2098672389984144       1.224666532874111
-11.125452730486524       1.1639669939875599       1.224666532874111
-10.59404384325544        1.2098672389984142       1.2246665328741109
-10.59404384325544        1.1639669939875597       1.2246665328741109
-10.062634956024358       1.2098672389984144       1.224666532874111
-10.062634956024358       1.1639669939875599       1.224666532874111
-9.531226068793273        1.2098672389984144       1.224666532874111
-9.531226068793273        1.1639669939875599       1.224666532874111
-8.999817181562191        1.2098672389984144       1.2246665328741113
-8.999817181562191        1.16396699398756         1.2246665328741113
-8.468408294331109        1.2098672389984144       1.224666532874111
-8.468408294331109        1.16396699398756         1.224666532874111
-7.936999407100027        1.2098672389984144       1.224666532874111
-7.936999407100027        1.1639669939875599       1.224666532874111
-7.405590519868943        1.2098672389984144       1.224666532874111
-7.405590519868943        1.1639669939875599       1.224666532874111
-6.8741816326378595       1.2098672389984142       1.224666532874111
-6.8741816326378595       1.1639669939875599       1.224666532874111
-6.342772745406777        1.2098672389984142       1.2246665328741113
-6.342772745406777        1.1639669939875599       1.2246665328741113
-5.811363858175693        1.2098672389984149       1.2246665328741113
-5.811363858175693        1.16396699398756         1.2246665328741113
-5.279954970944607        1.2098672389984144       1.2246665328741109
-5.279954970944607        1.1639669939875599       1.2246665328741109
-4.748546145448669        1.2098672389984142       1.224666532874111
-4.748546145448669        1.1639669939875597       1.224666532874111
-4.218062676467948        1.2098672389984142       1.2246665328741109
-4.218062676467948        1.1639669939875597       1.2246665328741109
-3.698987153154056        1.2098672389984144       1.224666532874111
-3.698987153154056        1.1639669939875599       1.224666532874111
-3.2162470351470445       1.2098672389984144       1.224666532874111
-3.2162470351470445       1.1639669939875599       1.224666532874111
-2.786621272280774        1.2098672389984144       1.224666532874111
-2.786621272280774        1.1639669939875597       1.224666532874111
-2.4692426734448283       1.1639669939875599       1.224666532874111
-2.4692426734448283       1.2098672389984144       1.224666532874111
-2.275814591576614        1.2098672389984144       1.224666532874111
-2.275814591576614        1.1639669939875599       1.224666532874111
-2.1575718507156387       1.1639669939875599       1.224666532874111
-2.1575718507156387       1.2098672389984144       1.224666532874111
-4.6004284592425835       -1.1735724655041255      1.887650200780114
-4.5992335576654035       -1.1737686364059898      1.9425655331309075
-4.591529763253868        -1.1193693917010585      1.887650200780114
-4.601623360819758        -1.173376294602262       1.8327348684293199
-4.609327155231293        -1.2277755393071936      1.887650200780114
-4.535348321127696        -1.1840696880087012      1.831254902505324
-4.483496974423048        -1.137105488146653       1.8852361599262903
-4.501294366400472        -1.2455116357527798      1.88523615992629
-4.432784764512534        -1.2010576400165345      1.8289622408555373
-4.310603578486956        -1.1654899626965955      1.881372779876002
-4.328400970464381        -1.273896110302722       1.8813727798760014
-4.031851016992539        -1.2112536828469833      1.8751439295534462
-4.049648408969967        -1.3196598304531095      1.8751439295534462
-3.6459176308947168       -1.2746136296879598      1.866520075897742
-3.6637150228721502       -1.3830197772940855      1.866520075897742
-3.19638788477405         -1.3484143990529198      1.8564751332105403
-3.2141852767514827       -1.456820546659045       1.85647513321054
-2.720793019299088        -1.4264943643521568      1.8458477538051716
-2.7385904112765203       -1.5349005119582821      1.8458477538051714
-2.2712632731784184       -1.5002951337171164      1.8358028111179694
-2.2890606651558505       -1.6087012813232422      1.8358028111179694
-1.8853298870805968       -1.5636550805580927      1.827178957462265
-1.9031272790580325       -1.6720612281642182      1.8271789574622657
-1.606577325586181        -1.6094188007084806      1.8209501071397096
-1.6243747175636165       -1.7178249483146064      1.82095010713971
-1.4870122756783617       -1.6845896557034248      1.7631380653081024
-1.4336839296500892       -1.6378032752584235      1.8170867270894218
-1.3959681130927386       -1.6717034951315313      1.7686344801978977
-1.4514813216275242       -1.7462094228645482      1.8170867270894215
-1.404908755296535        -1.725508933236583       1.7682765264306821
-1.335744738385157        -1.7095462746052053      1.7597573538848046
-1.325651140819267        -1.6555393717040114      1.8146726862355982
-1.3434485327967025       -1.7639455193101365      1.8146726862355982
-4.530071933281865        -1.157167415604709       1.9336884068178146
-4.538803749214089        -1.211007137402083       1.934046360585029
-4.447926843241243        -1.1984866224874646      1.9391848217076098
-4.31830737289849         -1.2198892074015169      1.9362881122267956
-4.178931092151283        -1.2427710674767105      1.9331736870655176
-4.0395548114040745       -1.2656529275519042      1.9300592619042396
-3.846706174007998        -1.2980513361414117      1.9257425108145776
-3.6536214253062544       -1.3290128743928808      1.921435408248536
-3.4288565522459207       -1.3659132590753604      1.916412936904935
-3.2040916791855873       -1.40281364375784        1.911390465561334
-2.966294246448106        -1.4418536264074588      1.9060767758586497
-2.728496813710626        -1.4808936090570775      1.9007630861559652
-2.5038499963031233       -1.5185124289085767      1.895735790550554
-2.278967067589956        -1.5546943784220375      1.8907181434687634
-2.086000374541047        -1.5863743518425253      1.8864062166409112
-1.893033681492136        -1.6180543252630137      1.8820942898130595
-1.753657400744928        -1.6409361853382076      1.8789798646517815
-1.6142811199977205       -1.6638180454134015      1.8758654394905039
-1.5021815610745652       -1.682184357399728       1.8733606461601744
-1.399570122713844        -1.6988806556875518      1.8710679845103877
-1.333354935230802        -1.7099386164089323      1.8695880185863916
-2.1575718507156387       1.1639669939875599       -0.40551172184642276
-2.1575718507156387       1.2098672389984144       -0.4055117218464223
-2.1575718507156383       1.1639669939875597       -0.24106885284095736
-2.157571850715639        1.2098672389984146       -0.24106885284095655
-2.1575718507156387       1.1639669939875599       0.020461987663423265
-2.1575718507156383       1.209867238998414        0.02046198766342608
-2.1575718507156387       1.1639669939875599       0.3546065479516984
-2.1575718507156387       1.2098672389984144       0.35460654795170454
-2.157571850715639        1.1639669939875599       0.6887511082399773
-2.1575718507156387       1.2098672389984146       0.688751108239972
-2.1575718507156383       1.1639669939875597       0.9502819487443563
-2.1575718507156383       1.2098672389984144       0.950281948744356
-2.1575718507156383       1.1639669939875597       1.1147248177498221
-2.1575718507156383       1.2098672389984142       1.1147248177498217
-2.144302950792859        -1.7782895604774698      -1.441677206044741
-2.029970659568631        -1.8479940786634077      -1.6133268184952
-2.1453344520129787       -1.9267354004871065      -1.389705707733812
-2.033051622108668        -1.991664084005198       -1.559471166641753
-1.8687188474091503       -1.7237001735237518      -1.2802842692727254
-1.8697503486292701       -1.8721460135333878      -1.2283127709617963
-1.5243918419004172       -1.8037352854467652      -1.0260571874365032
-1.5233603406802951       -1.6552894454371283      -1.078028685747431
-1.1179912133095922       -1.7232329600223988      -0.7880529261277829
-1.1169597120894692       -1.5747871200127614      -0.8400244244387102
-0.7726327065807401       -1.654822231935776       -0.5857973426024898
-0.771601205360616        -1.506376391926139       -0.6377688409134166
-0.497048603197032        -1.600232844982061       -0.4244044058304768
-0.49601710197690785      -1.451787004972424       -0.47637590414140346
-1.7602172937535432       -1.937619389329546       -1.399688606745173
-1.4133864446976245       -1.8689170106577349      -1.1965707613942476
-1.0044309507037608       -1.7879086018476116      -0.9570702699859283
-0.6576001016478417       -1.7192062231758005      -0.7539524246350026
-0.3847657732927181       -1.6651615285001522      -0.5941698647384208
-1.75713633121351         -1.7939493839877556      -1.4535442585986198
-1.410305482157591        -1.7252470053159443      -1.2504264132476939
-1.0013499881637271       -1.6442385965058208      -1.010925921839375
-0.6545191391078086       -1.5755362178340095      -0.8078080764884492
-0.3816848107526854       -1.5214915231583617      -0.6480255165918678
-1.3345498368079827       -1.7097424455070713      1.8146726862355982
-0.6447238120903392       0.17905977166569867      0.9151481907192005
-0.5342893798410027       0.179598363386476        0.8961263750299464
-0.6208900260110384       0.17940815503466295      0.9789196723187417
-0.5465636767515613       0.17930472775013342      0.8298877548454744
-0.4424566939904869       0.179800063311253        0.8083310617533919
-0.45266436691157635      0.17953905105449824      0.7483282087265888
-0.36102282269993013      0.17997892343672528      0.7304773849817573
-0.36102166836178595      0.17976774304362675      0.6687287216636079
-0.5537940578202422       0.45074966515967         1.0057742636052454
-0.6447238120903402       0.45047849531412687      0.9151481345462358
-0.597153537359841        0.45048653054849896      1.04243076152618
-0.6007362893318534       0.4507471494707838       0.8769412254616245
-0.26732381209034034      0.4505422430530052       1.9249481345330655
-0.21899228845308452      0.45076760757661893      1.9246383170272092
-0.25864945236958337      0.4507654823029936       1.8157991598972707
-0.3068525472132448       0.4505355661386313       1.8191820594758585
-0.4873074589770526       0.4507532282539755       1.1882468527638081
-0.5283038669855628       0.4504981601478866       1.2266501498225217
-0.3995547441004991       0.45075793102421974      1.4290843353215132
-0.4434253535687976       0.4505124972260786       1.453757523556309
-0.3647828819350465       0.45052578095619633      1.6641792719790058
-0.31669464316282714      0.45076237159358185      1.6564940301939655
-0.33939968794584324      0.17669872548351456      -0.26317516365380716
-0.20899117428196007      0.1774115545453098       -0.2631751638013347
-0.3610051693764168       0.17674933614576505      -0.21384654282549959
-0.20717544729127163      0.177590188429615        -0.2138465428254993
-0.011676180227033539     0.1784901027024712       -0.2631751640245516
-0.0038933530193495016    0.17870135349523109      -0.2138465428254988
0.2828146603621032        0.18009982605339858      -0.2631751643577007
1.434612686065402         0.18639569649139795      -0.26317516566069754
1.5549442023038882        0.1870534434391604       -0.2631751657968251
1.4421020752263585        0.1866053433211029       -0.21384654282549506
1.5619559181271538        0.18726047924779696      -0.2138465428254955
0.29787473733765424       0.18035085519445032      -0.21384654282549803
0.6307408207860448        0.18200163347026943      -0.2631751647512999
1.2685169543635841        0.1856565055845365       -0.21384654282549553
1.2534589310390576        0.18540548766523973      -0.2631751654557634
0.9954623469113021        0.18416395533364902      -0.21384654282549626
0.974565275576396         0.18388102045693663      -0.26317516514025885
0.6508225841464333        0.18228011177144         -0.21384654282549714
-0.014186362974227998     0.3749001263384255       2.2296761745129134
0.01631435974226647       0.2980077662877085       2.2295129974000605
-0.10709807914081336      0.2971269458499932       2.229512997400061
0.04460931866890754       0.372916319412247        2.229671088443631
0.1341799197749221        0.2988489974887043       2.229512997400061
-0.10778819553071396      0.45077356713353917      2.2298381484764427
0.013197996769994447      0.4513364138898358       2.2298375122383725
0.1330876043850368        0.4518941591620562       2.2298368817669822
0.07976700289838122       0.2980426909519442       2.4270070857106183
-0.03289086213149064      0.29699539459549046      2.5419423040508
-0.05788607954380701      0.29719235219253803      2.364576324700636
0.041462702270542995      0.2975234345240101       2.5431883859867055
0.034301394879561097      0.2979483017494378       2.3182739198401987
-0.015116618085876875     0.2976601056039417       2.2877907245185907
0.11929495967941613       0.2985785353690261       2.3071142971515144
0.0019714864608979927     0.4508887414367843       2.4658462619411545
-0.046838695894012065     0.45068642394290415      2.451072207024523
-0.03398712334783559      0.45059340909327067      2.5422673584017033
0.040367755851226136      0.45093723178415457      2.5435130504848265
0.016035893410963516      0.4510822707858853       2.389394082700417
-0.05923848708748213      0.45077616896898653      2.363082909927159
0.0793629398793292        0.4513168173221672       2.4252391329354452
0.014701358776856096      0.4512140686562188       2.307029418804508
-0.07990058748348171      0.45077506166295045      2.306375738522509
0.1181013923988653        0.45169390379343083      2.307743892087652
-0.04634659357608212      0.3821782024402065       2.4509495420534755
0.06984175576135285       0.3739283481395193       2.455626828791696
0.09004460944540991       0.3752522257297768       2.394328769413191
0.5766948019965087        -1.8071102133263335      -1.6467039279457207
0.5552754224890256        -1.8071102133263335      -1.6467039194225497
0.5766947816041602        -1.785090891054128       -1.6979514941188778
0.5552754020966761        -1.7850908910541277      -1.6979514855957067
0.5552753685106803        -1.7488252861015585      -1.7823557177805487
0.5766947480181643        -1.7488252861015599      -1.7823557263037193
0.5552753131128921        -1.6890076671889742      -1.9215746885393563
0.5766946926203762        -1.6890076671889753      -1.9215746970625265
0.5552752220457757        -1.5906748953303522      -2.1504334685925026
0.5766946015532598        -1.5906748953303533      -2.150433477115672
0.5552750909172475        -1.4490844708718136      -2.47996970759304
0.5766944704247314        -1.449084470871815       -2.479969716116208
0.5552749260726333        -1.2710879725099238      -2.8942371049100006
0.5766943055801173        -1.2710879725099253      -2.8942371134331686
0.5552747370696234        -1.0670056364361424      -3.3692164386706027
0.5766941165771073        -1.0670056364361469      -3.3692164471937653
0.5552745416420324        -0.855986143724655       -3.8603412463676636
0.5766939211495165        -0.8559861437246578      -3.8603412548908307
0.5552743526390226        -0.6519038076508727      -4.3353205801282675
0.5766937321465065        -0.6519038076508767      -4.335320588651432
0.5552741877944085        -0.47390730928897923     -4.749587977445238
0.5766935673018925        -0.4739073092889827      -4.749587985968401
0.55527405666588          -0.3323168848304363      -5.079124216445786
0.5766934361733641        -0.3323168848304393      -5.079124224968951
0.5552739655987636        -0.23398411297180988     -5.30798299649894
0.5552739102009756        -0.1741664940592231      -5.447201967257755
0.5766933451062478        -0.23398411297181226     -5.30798300502211
0.5552738766149796        -0.13790088910665319     -5.531606199442599
0.5766932897084596        -0.17416649405922485     -5.447201975780923
0.5552738562226308        -0.11588156683444509     -5.582853765615755
0.5766932561224637        -0.13790088910665435     -5.53160620796577
0.5766932357301149        -0.11588156683444611     -5.5828537741389255
0.5766951391154266        0.16466959347419652      -0.7994977431862869
0.5552757596079435        0.16466959347419652      -0.7994977346631219
0.5766951303004242        0.11311139701047258      -0.8216505326450609
0.5552757507929413        0.11311139701046957      -0.8216505241218935
0.5552754313040281        -1.755552016862608       -1.6245511299637831
0.576694810811511         -1.7555520168626073      -1.6245511384869484
0.576695115738254         0.027938505989643203     -0.8582464039476355
0.5552757362307712        0.02793850598963981      -0.8582463954244685
0.5552754458661981        -1.6703791258417784      -1.5879552586612082
0.576694825373681         -1.670379125841778       -1.5879552671843737
0.576695091655583         -0.11291898392568286     -0.9187680383686667
0.5552757121481002        -0.11291898392568729     -0.9187680298455008
0.5552754699488692        -1.5295216359264532      -1.5274336242401771
0.5766948494563521        -1.5295216359264519      -1.5274336327633429
0.5552755094438769        -1.2985187032515497      -1.4281795835076545
0.5766948889513598        -1.2985187032515468      -1.4281795920308198
0.5552755626925633        -0.9870716766112958      -1.2943614734506765
0.5766949422000461        -0.9870716766112914      -1.294361481973842
0.555275619404406         -0.655368943240847       -1.1518401806350016
0.576694998911889         -0.6553689432408418      -1.1518401891581669
0.5552756726530924        -0.3439219166005923      -1.0180220705780239
0.5766950521605754        -0.3439219166005864      -1.0180220791011891
0.5766935728490328        1.855898239966082        -4.735647589379491
0.5766935640340304        1.8043400435023529       -4.757800378838258
0.5552741933415487        1.855898239966082        -4.7356475808563205
0.5552741845265465        1.8043400435023544       -4.757800370315094
0.5766935494718604        1.7191671524815233       -4.794396250140833
0.5552741699643764        1.719167152481523        -4.794396241617668
0.5552741458817053        1.578309662566197        -4.8549178760387
0.5766935253891892        1.5783096625661974       -4.854917884561863
0.5766934858941816        1.3473067298912962       -4.954171925294385
0.5552741063866976        1.347306729891294        -4.954171916771222
0.5766934326454951        1.035859703251044        -5.087990035351361
0.555274053138011         1.0358597032510393       -5.087990026828198
0.5766933759336522        0.7041569698805942       -5.230511328167036
0.5552739964261684        0.7041569698805895       -5.230511319643875
0.576693322684966         0.39270994324034003      -5.364329438224014
0.5552739431774819        0.3927099432403367       -5.364329429700851
0.5766932831899583        0.16170701056543618      -5.4635834789565365
0.5552739036824742        0.16170701056543438      -5.463583470433371
0.5552738795998033        0.020849520650108123     -5.524105104854404
0.5766932591072873        0.020849520650108585     -5.52410511337757
0.5552738650376331        -0.06432337037072246     -5.560700976156979
0.5766932445451173        -0.06432337037072247     -5.560700984680144
0.5766951187230781        0.18668891574639973      -0.8507453093594431
0.555275739215594         0.18668891574639973      -0.8507453008362724
0.5552757056295982        0.2229545206989683       -0.9351495330211137
0.5766950851370822        0.22295452069896832      -0.9351495415442845
0.55527565023181          0.28277213961155184      -1.0743685037799195
0.5766950297392941        0.2827721396115526       -1.0743685123030922
0.5552755591646937        0.38110491147017284      -1.3032272838330625
0.5766949386721779        0.38110491147017483      -1.303227292356238
0.5552754280361654        0.5226953359287096       -1.6327635228335962
0.5766948075436494        0.5226953359287131       -1.632763531356775
0.5552752631915511        0.7006918342905992       -2.047030920150556
0.5766935932413816        1.833878917693874        -4.684400023206334
0.5552742137338976        1.8338789176938737       -4.684400014683164
0.5766946426990353        0.7006918342906034       -2.047030928673737
0.5552750741885412        0.9047741703643786       -2.5220102539111546
0.5766944536960252        0.9047741703643833       -2.5220102624343363
0.5552742473198934        1.7976133127413032       -4.599995782498318
0.5766936268273775        1.7976133127413039       -4.599995791021491
0.5766936822251656        1.7377956938287171       -4.460776820262676
0.5552743027176816        1.7377956938287153       -4.460776811739503
0.5552743937847979        1.639462921970088        -4.2319180316863445
0.576693773292282         1.6394629219700905       -4.2319180402095204
0.5552748787609504        1.1157936630758671       -3.0131350616082173
0.5552745249133264        1.4978724975115438       -3.902381792685795
0.5766939044208104        1.4978724975115474       -3.902381801208972
0.5552746897579405        1.3198759991496494       -3.4881143953688216
0.5766940692654244        1.3198759991496534       -3.4881144038920024
0.5766942582684345        1.1157936630758707       -3.0131350701313964
0.8640080954216609        1.374628834591565        2.3144681054001115
0.8200839853046187        1.2370747861236657       2.5084009463312955
0.8202868811243267        1.5129835717149296       2.5076078720329367
0.8640497708453567        1.2364843355993547       2.3142324890526322
0.8639665335411495        1.5123969638935448       2.3147030798193686
0.9151132681371364        1.2372725825636541       2.601525663574705
0.9152147160469905        1.375226975359285        2.601129126425529
0.9153161639568445        1.513181368154918        2.600732589276357
1.0682282600304542        1.236519604814133        2.3787384858464558
1.1345901249553323        1.236477293871163        2.380996261811245
1.0780967520742637        1.236780550137168        2.4720454851032763
1.0137393471984237        1.2371260205047023       2.5757690092655205
0.9480892963625414        1.2367821107854984       2.4393280300511573
1.1322373587207153        1.236292437315323        2.3160831579936265
1.0127773955785229        1.2363779154022034       2.315258806481942
1.066646762632914         1.5124344164221517       2.3795853399203137
1.0782996478939684        1.5126893357284212       2.4712524108049223
1.1347930207750383        1.5123860794624167       2.3802031875128966
1.0139422430181317        1.5130348060959558       2.5749759349671617
0.9496021730458105        1.512693081973456        2.4396304583751225
1.0118596523161412        1.5122911408167337       2.3157236386143216
1.1309537683027167        1.5122059245072146       2.316545465542465
1.0138407951082777        1.3750804133003194       2.575372472116345
0.9279606699945172        0.2986690655566247       2.3071314722300094
0.9310801998419783        0.4554665891974357       2.3133614109349403
0.9327019687295893        0.29879514511789695      2.237889651071873
0.9338884080462921        0.45560549575530007      2.238256421370781
0.9642152792467935        0.2981375511504318       2.4170996640267295
1.0057872142330224        0.29752808154658783      2.5431964725212053
0.9657934911612349        0.3727434228462418       2.4203487467786537
1.0069819425178907        0.4554339757875413       2.543565805232942
0.9675595701680191        0.45545091476605665      2.4240006539116807