% Model:              Box_wing_SAT.mph
% Version:            COMSOL 6.2.0.290
% Date:               Jan 9 2025, 11:30
% Dimension:          3
% Nodes:              316
% Elements:           444
% Expressions:        1
% Description:        Material settings
% Length unit:        m
% Coordinates
-1.265                    -0.6                     0.5499999999999999
-1.2649999999999997       -0.2000000000000001      0.5499999999999998
-1.265                    -0.6                     0.32999999999999985
-1.265                    -0.2                     0.3299999999999998
-1.2650000000000001       0.1999999999999999       0.5499999999999999
-1.2649999999999997       -0.5999999999999999      0.10999999999999995
-1.265                    0.6                      0.5499999999999999
-1.265                    0.19999999999999993      0.33
-1.265                    -0.1999999999999998      0.10999999999999993
-1.265                    -0.6                     -0.11000000000000004
-1.265                    0.5999999999999999       0.33000000000000007
-1.265                    0.19999999999999993      0.10999999999999993
-1.265                    -0.2                     -0.10999999999999993
-1.265                    -0.6                     -0.33
-1.265                    0.6                      0.1100000000000001
-1.265                    0.19999999999999993      -0.10999999999999993
-1.265                    -0.19999999999999996     -0.33
-1.265                    -0.6                     -0.55
-1.2649999999999997       0.5999999999999998       -0.10999999999999996
-1.265                    0.19999999999999984      -0.33
-1.2650000000000001       -0.1999999999999999      -0.55
-1.265                    0.5999999999999999       -0.33
-1.2649999999999997       0.2000000000000001       -0.55
-1.265                    0.6                      -0.55
0.8654166500000002        -0.6                     -0.55
0.715433325               -0.5999999999999999      -0.5499999999999999
0.8654166500000003        -0.2                     -0.55
0.5654500000000001        -0.6                     -0.55
0.7067216583333333        -0.19999999999999965     -0.5499999999999999
0.8654166500000003        0.19999999999999996      -0.5499999999999999
0.6980099916666667        0.2                      -0.5499999999999999
0.8654166500000002        0.6                      -0.55
0.6892983250000001        0.5999999999999999       -0.55
0.5480266666666667        -0.19999999999999993     -0.5499999999999999
0.3392700000000002        -0.6                     -0.55
0.5306033333333334        0.2                      -0.55
0.5131799999999999        0.6                      -0.55
0.32881600000000016       -0.19999999999999993     -0.55
0.11309000000000018       -0.6                     -0.55
0.3183620000000001        0.19999999999999993      -0.55
0.3079079999999999        0.5999999999999999       -0.5499999999999999
-0.11308999999999982      -0.6                     -0.55
0.10960533333333351       -0.19999999999999993     -0.55
0.10612066666666664       0.2                      -0.55
0.10263599999999996       0.6                      -0.5499999999999999
-0.3392699999999998       -0.6                     -0.55
-0.10960533333333315      -0.19999999999999993     -0.55
-0.10612066666666664      0.2                      -0.55
-0.10263599999999996      0.6                      -0.55
-0.5654499999999998       -0.6                     -0.55
-0.3288159999999996       -0.19999999999999984     -0.55
-0.3183620000000001       0.2                      -0.55
-0.7154333249999998       -0.5999999999999999      -0.55
-0.5480266666666664       -0.19999999999999993     -0.55
-0.3079079999999999       0.5999999999999999       -0.55
-0.8654166499999998       -0.6                     -0.55
-0.7067216583333333       -0.19999999999999965     -0.55
-0.5306033333333332       0.19999999999999996      -0.55
-0.5131799999999999       0.6                      -0.55
-0.8654166499999998       -0.19999999999999996     -0.5500000000000002
-0.6980099916666669       0.2                      -0.55
-0.6892983249999999       0.6                      -0.55
-0.8654166499999998       0.2                      -0.5500000000000002
-0.8654166499999998       0.6                      -0.55
0.5654500000000002        -0.5999999999999999      0.32999999999999996
0.5654500000000001        -0.6                     0.55
0.4188539999999997        -0.6                     0.3299999999999999
0.4387500000000001        -0.6                     0.55
0.13961800000000005       -0.6                     0.32999999999999996
0.5654500000000002        -0.6                     -0.3300000000000001
0.5654500000000002        -0.6                     -0.11000000000000013
0.35916600000000043       -0.6                     -0.3300000000000003
0.5654500000000002        -0.5999999999999999      0.10999999999999993
0.39895800000000015       -0.6                     0.10999999999999993
0.37906200000000007       -0.6                     -0.11000000000000022
0.1329859999999997        -0.6                     0.10999999999999986
0.14625000000000005       -0.6000000000000001      0.55
-0.13961800000000002      -0.6                     0.33
-0.13298599999999983      -0.6                     0.11000000000000013
-0.4188540000000001       -0.6                     0.33000000000000024
0.11972200000000006       -0.6                     -0.33000000000000007
0.12635400000000044       -0.6                     -0.11000000000000013
-0.12635399999999927      -0.6                     -0.10999999999999967
-0.14625000000000005      -0.6                     0.55
-0.4387500000000001       -0.6                     0.55
-0.5654499999999998       -0.6                     0.5499999999999999
-0.5654499999999998       -0.6                     0.3300000000000001
-0.11972199999999998      -0.6                     -0.3300000000000003
-0.3989579999999997       -0.6                     0.11000000000000013
-0.37906200000000007      -0.6                     -0.10999999999999986
-0.3591659999999999       -0.6                     -0.3299999999999999
-0.5654499999999998       -0.6                     0.11000000000000013
-0.5654499999999998       -0.5999999999999999      -0.10999999999999993
-0.5654499999999998       -0.5999999999999999      -0.32999999999999996
0.5131800000000001        0.6                      0.3300000000000001
0.4125816000000003        0.6                      0.33000000000000007
0.5131799999999999        0.6                      0.55
0.4387500000000005        0.6                      0.55
0.5131800000000001        0.6                      0.11000000000000013
0.3864132000000005        0.6                      0.11000000000000004
0.51318                   0.5999999999999999       -0.10999999999999993
0.3602448000000005        0.6                      -0.11000000000000004
0.51318                   0.5999999999999999       -0.32999999999999996
0.3340763999999999        0.6                      -0.3299999999999999
0.14625000000000044       0.6                      0.55
0.13752720000000052       0.6                      0.33000000000000007
0.12880440000000012       0.6                      0.11000000000000013
0.12008159999999977       0.6                      -0.11000000000000004
0.1113588000000003        0.6                      -0.3299999999999999
-0.14624999999999974      0.6                      0.55
-0.13752719999999935      0.6                      0.32999999999999974
-0.12880439999999968      0.6                      0.11000000000000004
-0.12008160000000018      0.6                      -0.11000000000000022
-0.11135879999999998      0.6                      -0.3300000000000002
-0.4387499999999999       0.6                      0.55
-0.41258159999999994      0.6                      0.3299999999999999
-0.5131799999999999       0.6                      0.55
-0.3864131999999997       0.6                      0.10999999999999986
-0.36024480000000014      0.6                      -0.11000000000000022
-0.33407640000000016      0.6                      -0.33000000000000007
-0.5131799999999997       0.5999999999999999       0.32999999999999996
-0.5131799999999997       0.5999999999999999       0.10999999999999993
-0.5131799999999999       0.6                      -0.11000000000000013
-0.5131799999999999       0.6                      -0.3300000000000001
0.4387500000000002        -0.19999999999999996     0.55
0.14625000000000005       -0.2                     0.55
0.4387500000000001        0.2                      0.55
0.1462500000000002        0.19999999999999993      0.55
-0.14624999999999985      -0.2                     0.55
-0.43874999999999986      -0.2                     0.55
-0.14624999999999985      0.19999999999999993      0.55
-0.43874999999999986      0.19999999999999996      0.55
1.2650000000000001        -0.2                     0.55
1.2650000000000001        -0.2                     0.3300000000000002
1.2650000000000001        0.2                      0.55
1.2650000000000001        -0.2                     -0.10999999999999983
1.2650000000000001        -0.20000000000000004     -0.3299999999999999
1.2650000000000001        0.2                      -0.10999999999999993
1.2650000000000001        -0.2                     -0.5499999999999999
1.2650000000000001        0.2                      -0.3299999999999999
1.2650000000000001        0.2                      0.11000000000000011
1.2650000000000001        -0.2                     0.11000000000000024
1.2650000000000001        0.2                      0.3300000000000001
1.2650000000000001        0.2                      -0.5499999999999999
-0.7403374999999999       -0.6000000000000001      0.5499999999999999
-0.9152249999999997       -0.5999999999999999      0.5499999999999998
-0.7353566649999997       -0.6                     0.32999999999999996
-0.5654499999999998       -0.6                     0.3300000000000001
-0.5654499999999998       -0.6                     0.5499999999999999
-0.9052633299999997       -0.6                     0.3299999999999999
-1.0901125                -0.6000000000000001      0.5499999999999998
-1.265                    -0.6                     0.5499999999999999
-1.265                    -0.6                     0.32999999999999985
-1.0851316649999998       -0.6                     0.3299999999999998
-0.5654499999999998       -0.6                     0.11000000000000013
-0.7303758299999997       -0.6                     0.11000000000000013
-0.8953016599999996       -0.6                     0.11000000000000013
-0.5654499999999998       -0.5999999999999999      -0.10999999999999993
-0.7253949949999999       -0.6                     -0.10999999999999993
-1.2649999999999997       -0.5999999999999999      0.10999999999999995
-1.0801508299999998       -0.6                     0.10999999999999986
-0.8853399899999999       -0.6                     -0.10999999999999993
-0.5654499999999998       -0.5999999999999999      -0.32999999999999996
-0.7204141599999998       -0.6                     -0.33
-0.5654499999999998       -0.6                     -0.55
-0.7154333249999998       -0.5999999999999999      -0.55
-1.265                    -0.6                     -0.11000000000000004
-0.8753783199999999       -0.6                     -0.33
-1.075169995              -0.6                     -0.10999999999999993
-0.8654166499999998       -0.6                     -0.55
-1.265                    -0.6                     -0.33
-1.0701891599999998       -0.6                     -0.33
-1.065208325              -0.5999999999999999      -0.55
-1.265                    -0.6                     -0.55
-0.8654166499999998       -0.19999999999999996     -0.5500000000000002
-1.0652083249999997       -0.19999999999999965     -0.55
-0.8654166499999998       0.2                      -0.5500000000000002
-1.2650000000000001       -0.1999999999999999      -0.55
-1.0652083249999997       0.20000000000000007      -0.55
-0.8654166499999998       0.6                      -0.55
-1.2649999999999997       0.2000000000000001       -0.55
-1.065208325              0.5999999999999999       -0.55
-1.265                    0.6                      -0.55
-1.265                    0.6                      0.5499999999999999
-1.077045                 0.5999999999999999       0.5499999999999999
-1.265                    0.5999999999999999       0.33000000000000007
-0.7011350000000001       0.6000000000000001       0.55
-0.5131799999999999       0.6                      0.55
-0.6987676649999993       0.6                      0.3299999999999999
-0.5131799999999997       0.5999999999999999       0.32999999999999996
-0.88909                  0.6000000000000001       0.55
-0.8843553299999993       0.6                      0.33000000000000007
-1.074677665              0.6                      0.3299999999999999
-1.265                    0.6                      0.1100000000000001
-0.5131799999999997       0.5999999999999999       0.10999999999999993
-0.6964003300000002       0.6                      0.11000000000000004
-0.8796206599999997       0.6                      0.11000000000000004
-1.0723103299999994       0.6                      0.11000000000000004
-0.5131799999999999       0.6                      -0.11000000000000013
-0.694032995              0.6                      -0.11000000000000004
-0.5131799999999999       0.6                      -0.3300000000000001
-0.6916656599999993       0.6                      -0.3300000000000002
-0.5131799999999999       0.6                      -0.55
-0.6892983249999999       0.6                      -0.55
-1.2649999999999997       0.5999999999999998       -0.10999999999999996
-0.8748859899999997       0.6                      -0.11000000000000004
-1.0699429949999997       0.6                      -0.11000000000000013
-0.8701513199999998       0.6                      -0.33000000000000007
-1.265                    0.5999999999999999       -0.33
-1.0675756600000001       0.6                      -0.33000000000000024
1.2650000000000001        0.6                      0.55
1.2650000000000001        0.6                      0.33
1.0143933333333337        0.6000000000000001       0.5500000000000003
1.2650000000000001        0.6                      0.11000000000000004
0.9845979966666673        0.6                      0.3300000000000002
1.2650000000000001        0.5999999999999999       -0.10999999999999995
0.9250073233333337        0.6                      -0.10999999999999986
0.9548026600000005        0.6                      0.11000000000000004
0.7637866666666665        0.6                      0.55
0.7488889983333333        0.6                      0.3300000000000002
1.2650000000000001        0.6                      -0.5499999999999999
0.8654166500000002        0.6                      -0.55
1.2650000000000001        0.6                      -0.32999999999999985
0.8952119866666669        0.6                      -0.3299999999999999
0.6892983250000001        0.5999999999999999       -0.55
0.7041959933333334        0.6                      -0.3299999999999998
0.7190936616666667        0.6                      -0.10999999999999993
0.7339913300000002        0.6                      0.11000000000000022
0.5131799999999999        0.6                      0.55
0.5131800000000001        0.6                      0.3300000000000001
0.5131800000000001        0.6                      0.11000000000000013
0.51318                   0.5999999999999999       -0.10999999999999993
0.5131799999999999        0.6                      -0.55
0.51318                   0.5999999999999999       -0.32999999999999996
0.8986966533333332        -0.6                     -0.3300000000000003
1.2650000000000001        -0.5999999999999999      -0.33000000000000007
0.9319766566666674        -0.6                     -0.11000000000000004
1.2650000000000001        -0.6                     -0.1100000000000001
0.9652566600000008        -0.6                     0.10999999999999993
1.2650000000000001        -0.5999999999999998      0.10999999999999996
1.2650000000000001        -0.6                     0.55
1.0318166666666668        -0.6                     0.55
1.2650000000000001        -0.5999999999999999      0.33
0.9985366633333331        -0.6                     0.33
1.2650000000000001        -0.6                     -0.5499999999999999
0.8654166500000002        -0.6                     -0.55
0.7320733266666667        -0.6                     -0.3299999999999999
0.781993331666667         -0.6                     0.3299999999999999
0.7487133283333332        -0.6                     -0.1100000000000003
0.7653533300000002        -0.6                     0.10999999999999993
0.7986333333333334        -0.6                     0.55
0.715433325               -0.5999999999999999      -0.5499999999999999
0.5654500000000002        -0.6                     -0.3300000000000001
0.5654500000000001        -0.6                     -0.55
0.5654500000000002        -0.5999999999999999      0.32999999999999996
0.5654500000000002        -0.5999999999999999      0.10999999999999993
0.5654500000000002        -0.6                     -0.11000000000000013
0.5654500000000001        -0.6                     0.55
1.2650000000000001        -0.2                     -0.5499999999999999
0.8654166500000003        -0.2                     -0.55
1.2650000000000001        0.2                      -0.5499999999999999
0.8654166500000003        0.19999999999999996      -0.5499999999999999
1.2650000000000001        -0.2                     0.11000000000000024
1.2650000000000001        -0.2                     0.3300000000000002
1.2650000000000001        -0.2                     0.55
1.2650000000000001        -0.2                     -0.10999999999999983
1.2650000000000001        -0.20000000000000004     -0.3299999999999999
1.2650000000000001        0.2                      0.11000000000000011
1.2650000000000001        0.2                      -0.10999999999999993
1.2650000000000001        0.2                      0.3300000000000001
1.2650000000000001        0.2                      0.55
1.2650000000000001        0.2                      -0.3299999999999999
-0.4387500000000001       -0.6                     0.55
-0.43874999999999986      -0.2                     0.55
-0.5654499999999998       -0.6                     0.5499999999999999
-0.5480266666666664       -0.20000000000000007     0.5499999999999999
-0.7403374999999999       -0.6000000000000001      0.5499999999999999
-0.7272700000000001       -0.2                     0.5499999999999999
-0.9152249999999997       -0.5999999999999999      0.5499999999999998
-0.906513333333333        -0.19999999999999993     0.5499999999999999
-1.0901125                -0.6000000000000001      0.5499999999999998
-1.0857566666666665       -0.20000000000000018     0.5499999999999999
-1.265                    -0.6                     0.5499999999999999
-1.2649999999999997       -0.2000000000000001      0.5499999999999998
-0.43874999999999986      0.19999999999999996      0.55
-0.530603333333333        0.19999999999999984      0.55
-0.4387499999999999       0.6                      0.55
-0.7142024999999997       0.19999999999999993      0.5499999999999999
-0.8978016666666665       0.2000000000000001       0.5499999999999999
-1.0814008333333334       0.19999999999999957      0.5499999999999999
-1.2650000000000001       0.1999999999999999       0.5499999999999999
-0.5131799999999999       0.6                      0.55
-0.7011350000000001       0.6000000000000001       0.55
-0.88909                  0.6000000000000001       0.55
-1.265                    0.6                      0.5499999999999999
-1.077045                 0.5999999999999999       0.5499999999999999
1.2650000000000001        -0.6                     0.55
1.2650000000000001        -0.2                     0.55
1.0318166666666668        -0.6                     0.55
1.0260088888888892        -0.2000000000000001      0.55
1.2650000000000001        0.2                      0.55
0.7986333333333334        -0.6                     0.55
1.0202011111111122        0.2000000000000001       0.55
1.2650000000000001        0.6                      0.55
1.0143933333333337        0.6000000000000001       0.5500000000000003
0.7870177777777777        -0.19999999999999987     0.55
0.5654500000000001        -0.6                     0.55
0.7754022222222222        0.2000000000000001       0.55
0.7637866666666665        0.6                      0.55
0.5480266666666661        -0.19999999999999993     0.55
0.4387500000000001        -0.6                     0.55
0.5306033333333332        0.2                      0.55
0.4387500000000002        -0.19999999999999996     0.55
0.5131799999999999        0.6                      0.55
0.4387500000000001        0.2                      0.55
0.4387500000000005        0.6                      0.55
% Elements (triangles)
1          2         3
4          3         2
2          5         4
3          4         6
5          7         8
8          4         5
9          6         4
4          8         9
6          9         10
11         8         7
12         9         8
8          11        12
13         10        9
9          12        13
10         13        14
15         12        11
16         13        12
12         15        16
17         14        13
13         16        17
14         17        18
19         16        15
20         17        16
16         19        20
21         18        17
17         20        21
22         20        19
23         21        20
20         22        23
24         23        22
25         26        27
26         28        29
29         27        26
27         29        30
31         30        29
30         31        32
33         32        31
34         29        28
29         34        31
28         35        34
36         31        34
31         36        33
37         33        36
38         34        35
34         38        36
35         39        38
40         36        38
36         40        37
41         37        40
39         42        43
43         38        39
38         43        40
44         40        43
40         44        41
45         41        44
42         46        47
47         43        42
43         47        44
48         44        47
44         48        45
49         45        48
46         50        51
51         47        46
47         51        48
52         48        51
48         52        49
50         53        54
54         51        50
51         54        52
55         49        52
53         56        57
57         54        53
58         52        54
52         58        55
54         57        58
59         55        58
60         57        56
57         60        61
61         58        57
58         61        59
62         59        61
63         61        60
61         63        62
64         62        63
65         66        67
68         67        66
67         68        69
70         71        72
28         70        35
72         35        70
73         65        74
67         74        65
75         72        71
71         73        75
74         75        73
74         67        76
69         76        67
77         69        68
69         77        78
76         69        79
78         79        69
78         80        79
72         75        81
35         72        39
81         39        72
82         81        75
75         74        82
76         82        74
82         76        83
79         83        76
84         78        77
84         85        78
80         78        85
85         86        80
87         80        86
81         82        88
83         88        82
39         81        42
88         42        81
79         89        83
80         87        89
89         79        80
83         90        88
90         83        89
88         91        42
91         88        90
89         92        90
92         89        87
46         42        91
90         93        91
93         90        92
91         94        46
94         91        93
50         46        94
95         96        97
98         97        96
99         100       95
96         95        100
101        102       99
100        99        102
103        104       101
102        101       104
37         41        103
104        103       41
98         96        105
96         100       106
106        105       96
100        102       107
107        106       100
102        104       108
108        107       102
104        41        109
109        108       104
45         109       41
110        105       111
106        111       105
111        106       112
107        112       106
112        107       113
108        113       107
113        108       114
109        114       108
114        109       49
45         49        109
115        110       116
111        116       110
115        116       117
116        111       118
112        118       111
118        112       119
113        119       112
119        113       120
114        120       113
120        114       55
49         55        114
116        118       121
121        117       116
118        119       122
122        121       118
119        120       123
123        122       119
120        55        124
124        123       120
59         124       55
68         125       77
126        77        125
125        127       126
77         126       84
128        126       127
127        98        128
84         129       85
129        84        126
126        128       129
130        85        129
105        128       98
129        131       130
131        129       128
128        105       131
132        130       131
131        110       132
110        131       105
115        132       110
133        134       135
136        137       138
137        139       140
140        138       137
138        141       136
142        136       141
141        143       142
134        142       143
143        135       134
144        140       139
145        146       147
148        149       147
145        147       149
150        147       146
146        151       150
152        153       151
154        151       153
154        150       151
155        148       156
147        156       148
147        150       156
157        156       150
150        154       157
158        155       159
156        159       155
156        157       159
153        160       154
161        154       160
161        157       154
162        159       157
157        161       162
163        158       164
159        164       158
159        162       164
165        163       166
164        166       163
160        167       161
164        168       166
168        164       162
162        169       168
169        161       167
169        162       161
170        166       168
167        171       169
168        172       170
172        169       171
172        168       169
173        170       172
171        174       172
173        172       174
170        173       175
173        174       176
176        175       173
175        176       177
178        176       174
176        178       179
179        177       176
177        179       180
181        179       178
179        181       182
182        180       179
183        182       181
184        185       186
187        188       189
190        189       188
191        187       192
189        192       187
193        186       185
192        193       191
185        191       193
186        193       194
195        196       190
189        190       196
196        197       189
192        189       197
197        198       192
198        194       193
193        192       198
199        200       195
196        195       200
201        202       199
200        199       202
203        204       201
202        201       204
194        198       205
200        206       196
197        196       206
206        207       197
207        205       198
198        197       207
202        208       200
206        200       208
204        180       202
208        202       180
205        207       209
208        210       206
210        209       207
207        206       210
180        182       208
210        208       182
182        183       210
209        210       183
211        212       213
212        214       215
215        213       212
216        217       214
218        215       214
218        214       217
213        215       219
220        219       215
215        218       220
221        222       223
224        223       222
223        224       216
217        216       224
225        226       222
224        222       226
217        224       227
226        227       224
228        220       218
218        217       228
227        228       217
229        219       230
220        230       219
230        220       231
228        231       220
231        228       232
227        232       228
225        233       226
232        227       234
234        226       233
226        234       227
235        236       237
238        237       236
237        238       239
240        239       238
241        242       243
239        240       244
243        244       240
244        243       242
245        236       246
235        246       236
235        247       246
244        248       239
247        235       249
237        249       235
249        237       250
239        250       237
250        239       248
242        251       244
248        244       251
252        246       247
247        249       253
253        254       247
252        247       254
248        251       255
255        256       248
250        248       256
257        253       249
256        257       250
249        250       257
258        255       251
245        246       259
260        259       246
259        260       261
262        261       260
261        262       221
222        221       262
240        238       263