% Model:              Box_wing_Ray_Matlab_test.mph
% Version:            COMSOL 6.0.0.405
% Date:               Oct 3 2022, 15:10
% Dimension:          3
% Nodes:              2544
% Elements:           3956
% Expressions:        1
% Description:        Material settings
% Length unit:        m
% Coordinates
-1.265                    0.6                      -0.5500000000000002
-1.2649999999999997       0.46666666666666656      -0.5500000000000002
-1.265                    0.6                      -0.3928571428571429
-1.265                    0.46666666666666645      -0.3928571428571429
-1.2649999999999997       0.5999999999999999       -0.2357142857142857
-1.265                    0.33333333333333337      -0.5500000000000002
-1.265                    -0.6                     0.55
-1.2649999999999997       -0.46666666666666656     0.5499999999999999
-1.265                    -0.6                     0.39285714285714285
-1.2649999999999997       -0.6000000000000001      -0.3928571428571432
-1.265                    -0.4666666666666667      -0.39285714285714324
-1.265                    -0.6                     -0.5500000000000002
-1.265                    -0.4666666666666667      -0.5500000000000002
-1.265                    -0.3333333333333335      -0.392857142857143
-1.265                    -0.33333333333333337     -0.5500000000000002
-1.265                    0.4666666666666667       0.55
-1.265                    0.6                      0.55
-1.265                    0.4666666666666667       0.39285714285714307
-1.2649999999999997       0.6000000000000001       0.39285714285714307
-1.265                    0.46666666666666673      -0.23571428571428593
-1.2649999999999997       0.6000000000000001       -0.07857142857142858
-1.265                    0.4666666666666667       -0.07857142857142872
-1.265                    0.6000000000000001       0.07857142857142863
-1.2650000000000001       0.06666666666666658      -0.5500000000000002
-1.2649999999999997       -0.06666666666666667     -0.5500000000000002
-1.265                    0.06666666666666651      -0.392857142857143
-1.265                    0.19999999999999996      -0.5500000000000002
-1.265                    0.33333333333333337      -0.3928571428571428
-1.265                    0.2                      -0.3928571428571429
-1.265                    0.3333333333333337       -0.23571428571428593
-1.265                    0.06666666666666651      -0.23571428571428582
-1.265                    0.20000000000000012      -0.23571428571428582
-1.265                    -0.33333333333333337     0.55
-1.265                    -0.4666666666666667      0.3928571428571427
-1.2649999999999997       -0.5999999999999999      0.2357142857142856
-1.265                    -0.46666666666666656     0.23571428571428546
-1.2649999999999997       -0.6000000000000001      0.07857142857142844
-1.265                    -0.19999999999999996     0.5500000000000002
-1.265                    -0.33333333333333337     0.3928571428571428
-1.2650000000000001       -0.06666666666666658     0.55
-1.265                    -0.20000000000000012     0.3928571428571429
-1.265                    -0.33333333333333337     0.23571428571428568
-1.265                    -0.19999999999999982     0.23571428571428568
-1.265                    -0.4666666666666667      0.07857142857142843
-1.265                    -0.6000000000000001      -0.07857142857142874
-1.265                    -0.4666666666666667      -0.07857142857142885
-1.2649999999999997       -0.6                     -0.235714285714286
-1.265                    -0.4666666666666667      -0.23571428571428607
-1.265                    -0.33333333333333337     -0.23571428571428615
-1.265                    -0.2                     -0.39285714285714324
-1.265                    -0.19999999999999998     -0.5500000000000002
-1.265                    -0.06666666666666662     -0.3928571428571434
-1.265                    -0.3333333333333334      0.07857142857142849
-1.265                    -0.3333333333333334      -0.07857142857142872
-1.265                    -0.2                     0.07857142857142854
-1.265                    -0.06666666666666651     0.23571428571428568
-1.265                    -0.2                     -0.23571428571428593
-1.265                    -0.06666666666666662     -0.23571428571428593
-1.265                    -0.2                     -0.07857142857142872
-1.265                    -0.06666666666666662     0.07857142857142861
-1.265                    -0.06666666666666662     -0.07857142857142885
-1.265                    0.06666666666666651      -0.07857142857142861
-1.2649999999999997       0.06666666666666667      0.55
-1.265                    -0.06666666666666651     0.3928571428571429
-1.265                    0.19999999999999998      0.55
-1.265                    0.06666666666666651      0.39285714285714296
-1.265                    0.06666666666666639      0.23571428571428568
-1.265                    0.06666666666666651      0.07857142857142854
-1.265                    0.33333333333333337      0.5500000000000002
-1.265                    0.19999999999999987      0.392857142857143
-1.265                    0.3333333333333335       0.392857142857143
-1.265                    0.2                      0.2357142857142858
-1.265                    0.33333333333333337      -0.07857142857142861
-1.265                    0.2                      -0.07857142857142861
-1.265                    0.2                      0.07857142857142867
-1.265                    0.4666666666666663       0.07857142857142867
-1.2649999999999997       0.6                      0.23571428571428585
-1.265                    0.466666666666667        0.2357142857142858
-1.265                    0.33333333333333326      0.07857142857142861
-1.265                    0.33333333333333326      0.23571428571428568
-0.8654166499999998       0.6                      -0.5500000000000002
-0.7949693199999999       0.6000000000000001       -0.5500000000000002
-0.8654166499999998       0.4666666666666667       -0.5500000000000002
-0.7961308755555556       0.46666666666666673      -0.5500000000000002
-0.7245219899999996       0.5999999999999999       -0.55
-0.8654166499999999       0.3333333333333333       -0.5500000000000002
-0.7972924311111109       0.33333333333333337      -0.5500000000000002
-0.8654166499999997       -0.4666666666666667      -0.5500000000000002
-0.8042617644444442       -0.46666666666666684     -0.5500000000000002
-0.8654166499999998       -0.6                     -0.5500000000000002
-0.8054233199999999       -0.6                     -0.5500000000000002
-0.6854366599999998       -0.6                     -0.5500000000000002
-0.7454299899999998       -0.6                     -0.5500000000000002
-0.6819519933333333       -0.46666666666666645     -0.5500000000000002
-0.8654166499999998       -0.33333333333333337     -0.5500000000000002
-0.8031002088888889       -0.3333333333333335      -0.5500000000000002
-0.7431068788888887       -0.4666666666666667      -0.5500000000000002
-0.7407837677777778       -0.3333333333333335      -0.5500000000000002
-0.8654166499999998       -0.06666666666666667     -0.5500000000000002
-0.8007770977777773       -0.06666666666666651     -0.5500000000000002
-0.8654166499999996       -0.2                     -0.55
-0.8019386533333325       -0.20000000000000012     -0.5500000000000002
-0.7384606566666664       -0.20000000000000012     -0.5500000000000002
-0.7996155422222219       0.06666666666666662      -0.5500000000000002
-0.8654166499999998       0.19999999999999998      -0.5500000000000002
-0.7984539866666668       0.19999999999999993      -0.5500000000000002
-0.8654166499999998       0.06666666666666665      -0.55
-0.6540746599999998       0.6                      -0.5500000000000002
-0.7268451011111108       0.4666666666666667       -0.5500000000000002
-0.5836273299999999       0.6                      -0.5500000000000002
-0.657559326666666        0.4666666666666667       -0.5500000000000002
-0.7314913233333331       0.19999999999999993      -0.5500000000000002
-0.7291682122222222       0.33333333333333315      -0.5500000000000002
-0.6645286599999991       0.19999999999999993      -0.5500000000000002
-0.6610439933333332       0.3333333333333333       -0.5500000000000002
-0.5929197744444442       0.3333333333333333       -0.5500000000000002
-0.5247955555555558       0.33333333333333337      -0.5500000000000002
-0.5975659966666667       0.2                      -0.5500000000000002
-0.5882735522222219       0.4666666666666667       -0.5500000000000002
-0.5189877777777775       0.4666666666666667       -0.5500000000000002
-0.5131799999999999       0.6                      -0.5500000000000002
-0.41054399999999974      0.5999999999999999       -0.55
-0.6254433299999999       -0.6000000000000001      -0.5500000000000003
-0.6207971077777779       -0.46666666666666684     -0.5500000000000002
-0.733814434444444        0.06666666666666657      -0.5500000000000002
-0.7361375455555554       -0.06666666666666675     -0.5500000000000002
-0.6714979933333334       -0.06666666666666651     -0.5500000000000002
-0.6680133266666665       0.06666666666666657      -0.5500000000000002
-0.6068584411111115       -0.06666666666666639     -0.5500000000000002
-0.602212218888889        0.06666666666666662      -0.5500000000000002
-0.6749826599999997       -0.20000000000000012     -0.5500000000000002
-0.6784673266666666       -0.3333333333333335      -0.5500000000000002
-0.6161508855555555       -0.33333333333333337     -0.5500000000000002
-0.611504663333333        -0.2                     -0.5500000000000002
-0.5654499999999998       -0.6                     -0.5500000000000002
-0.5596422222222223       -0.4666666666666667      -0.5500000000000002
-0.4477137777777777       -0.46666666666666645     -0.5500000000000002
-0.45235999999999976      -0.5999999999999999      -0.5500000000000002
-0.41983644444444496      0.3333333333333332       -0.5500000000000002
-0.4151902222222222       0.4666666666666667       -0.5500000000000002
-0.30790799999999985      0.6                      -0.5500000000000002
-0.5306033333333336       0.19999999999999993      -0.5500000000000002
-0.42448266666666634      0.19999999999999993      -0.5500000000000002
-0.5538344444444446       -0.3333333333333335      -0.5500000000000002
-0.5480266666666666       -0.2                     -0.5500000000000002
-0.4384213333333327       -0.2                     -0.5500000000000002
-0.5422188888888888       -0.06666666666666651     -0.5500000000000002
-0.536411111111111        0.06666666666666662      -0.5500000000000002
-0.43377511111111106      -0.06666666666666675     -0.5500000000000002
-0.42912888888888906      0.06666666666666657      -0.5500000000000002
-0.4430675555555556       -0.3333333333333336      -0.5500000000000002
-0.33230066666666624      -0.33333333333333337     -0.5500000000000002
-0.32881599999999983      -0.20000000000000012     -0.5500000000000002
-0.33578533333333316      -0.4666666666666667      -0.5500000000000002
-0.33926999999999974      -0.5999999999999999      -0.55
-0.22385688888888863      -0.46666666666666673     -0.5500000000000002
-0.22617999999999977      -0.6                     -0.55
-0.32533133333333275      -0.06666666666666651     -0.5500000000000002
-0.32184666666666656      0.06666666666666662      -0.5500000000000002
-0.21456444444444414      0.06666666666666662      -0.5500000000000002
-0.31836200000000014      0.2                      -0.5500000000000002
-0.212241333333333        0.19999999999999987      -0.5500000000000002
-0.31487733333333306      0.33333333333333326      -0.5500000000000002
-0.20527199999999987      0.5999999999999999       -0.55
-0.3113926666666671       0.4666666666666667       -0.5500000000000002
-0.10263599999999988      0.6                      -0.55
-0.20759511111111084      0.4666666666666667       -0.5500000000000002
-0.20991822222222178      0.3333333333333333       -0.5500000000000002
1.1622647289044608E-16    0.5999999999999999       -0.55
-0.10379755555555531      0.46666666666666673      -0.5500000000000002
0.10263600000000007       0.6                      -0.55
0                         0.4666666666666667       -0.5500000000000002
0.20527200000000015       0.5999999999999999       -0.5499999999999999
0.10379755555555555       0.46666666666666673      -0.5500000000000002
-0.10495911111111078      0.3333333333333333       -0.5500000000000002
0                         0.3333333333333333       -0.5500000000000002
0.30790800000000007       0.5999999999999999       -0.55
0.20759511111111084       0.4666666666666667       -0.5500000000000002
0.10495911111111147       0.33333333333333326      -0.5500000000000002
0.20991822222222226       0.33333333333333326      -0.5500000000000002
-0.21921066666666628      -0.2                     -0.5500000000000002
-0.2168875555555553       -0.06666666666666651     -0.5500000000000002
-0.22153377777777766      -0.33333333333333326     -0.5500000000000002
-0.11308999999999977      -0.5999999999999999      -0.55
-0.11192844444444432      -0.46666666666666645     -0.5500000000000002
-0.11076688888888836      -0.33333333333333315     -0.5500000000000002
2.3765711620882257E-16    -0.5999999999999999      -0.55
0                         -0.46666666666666684     -0.5500000000000002
-0.1061206666666665       0.19999999999999993      -0.5500000000000002
0.10612066666666672       0.2                      -0.5500000000000002
0                         0.2                      -0.5500000000000002
-0.10728222222222242      0.06666666666666657      -0.5500000000000002
-0.10844377777777765      -0.06666666666666675     -0.5500000000000002
-0.10960533333333314      -0.20000000000000012     -0.5500000000000002
0                         -0.2                     -0.5500000000000002
0                         -0.33333333333333337     -0.5500000000000002
0.5654500000000003        -0.6                     -0.55
0.45236000000000004       -0.5999999999999999      -0.55
0.5596422222222225        -0.46666666666666673     -0.55
0.11309000000000016       -0.6                     -0.55
0.11192844444444477       -0.46666666666666673     -0.5500000000000002
0.22618000000000016       -0.6                     -0.55
0.22385688888888872       -0.46666666666666684     -0.5500000000000002
0.2215337777777781        -0.3333333333333335      -0.5500000000000002
0                         0.06666666666666662      -0.5500000000000002
0                         -0.06666666666666651     -0.5500000000000002
0.1072822222222222        0.06666666666666662      -0.5500000000000002
0.11076688888888929       -0.33333333333333337     -0.5500000000000002
0.10960533333333408       -0.2                     -0.5500000000000002
0.10844377777777765       -0.06666666666666651     -0.5500000000000002
0.21921066666666686       -0.2                     -0.5500000000000002
0.21688755555555553       -0.06666666666666675     -0.5500000000000002
0.328816                  -0.2                     -0.55
0.3253313333333332        -0.06666666666666651     -0.55
0.8654166500000003        -0.6                     -0.55
0.8225642714285718        -0.6                     -0.55
0.8654166500000003        -0.4666666666666667      -0.5499999999999999
0.8217345888888893        -0.46666666666666645     -0.55
0.7797118928571432        -0.6                     -0.55
0.6940071357142861        -0.6000000000000001      -0.55
0.6511547571428576        -0.6000000000000001      -0.5500000000000002
0.690688405555556         -0.4666666666666667      -0.55
0.7780525277777781        -0.46666666666666645     -0.55
0.7368595142857146        -0.6                     -0.55
0.734370466666667         -0.46666666666666673     -0.55
0.5538344444444446        -0.33333333333333337     -0.55
0.5983461880952383        -0.33333333333333337     -0.55
0.776393162698413         -0.33333333333333315     -0.55
0.7318814190476192        -0.3333333333333335      -0.55
0.6873696753968256        -0.3333333333333335      -0.55
0.8209049063492068        -0.33333333333333337     -0.55
0.8654166500000005        -0.3333333333333333      -0.5499999999999999
0.43842133333333316       -0.2                     -0.55
0.4337751111111109        -0.06666666666666651     -0.55
0.4291288888888888        0.06666666666666675      -0.55
0.41054400000000013       0.5999999999999999       -0.55
0.3113926666666669        0.46666666666666656      -0.55
0.3148773333333335        0.33333333333333326      -0.55
0.5189877777777778        0.4666666666666667       -0.55
0.41519022222222207       0.46666666666666656      -0.55
0.5131800000000002        0.6                      -0.55
0.32184666666666634       0.06666666666666657      -0.55
0.2145644444444447        0.06666666666666651      -0.5500000000000002
0.31836200000000003       0.2                      -0.55
0.21224133333333356       0.2                      -0.5500000000000002
0.3392700000000002        -0.6                     -0.55
0.3357853333333334        -0.46666666666666645     -0.55
0.4477137777777778        -0.46666666666666684     -0.55
0.4430675555555559        -0.33333333333333337     -0.55
0.33230066666666674       -0.3333333333333336      -0.55
0.6083023785714289        -0.6                     -0.55
0.6033242833333335        -0.46666666666666645     -0.55
0.6428579317460321        -0.3333333333333335      -0.55
0.6470063444444449        -0.46666666666666645     -0.55
0.548026666666667         -0.20000000000000034     -0.55
0.593368092857143         -0.2                     -0.55
0.6387095190476194        -0.2                     -0.55
0.6840509452380955        -0.20000000000000012     -0.55
0.7293923714285715        -0.2                     -0.55
0.7747337976190478        -0.2                     -0.55
0.6807322150793654        -0.06666666666666675     -0.55
0.5422188888888889        -0.06666666666666662     -0.55
0.5883899976190476        -0.06666666666666651     -0.55
0.6345611063492069        -0.06666666666666662     -0.55
0.6774134849206351        0.06666666666666675      -0.55
0.5634995214285716        0.6000000000000001       -0.55
0.5684776166666666        0.46666666666666673      -0.55
0.6138190428571432        0.6000000000000001       -0.55
0.6179674555555557        0.4666666666666667       -0.55
0.6641385642857145        0.6000000000000001       -0.55
0.8200752238095241        -0.20000000000000012     -0.55
0.8654166500000002        -0.19999999999999998     -0.5499999999999998
0.6304126936507939        0.06666666666666668      -0.55
0.5834119023809523        0.0666666666666668       -0.55
0.5364111111111114        0.06666666666666657      -0.55
0.4198364444444445        0.33333333333333326      -0.55
0.5306033333333332        0.19999999999999993      -0.55
0.4244826666666662        0.2                      -0.55
0.5247955555555559        0.33333333333333337      -0.55
0.573455711904762         0.33333333333333337      -0.55
0.6221158682539688        0.33333333333333337      -0.55
0.6262642809523811        0.2                      -0.55
0.578433807142857         0.19999999999999982      -0.55
0.6740947547619048        0.19999999999999982      -0.55
0.7219252285714285        0.2                      -0.55
0.7697557023809525        0.19999999999999993      -0.55
0.7244142761904764        0.06666666666666668      -0.55
0.7269033238095242        -0.06666666666666662     -0.55
0.8192455412698415        -0.06666666666666651     -0.55
0.8654166500000002        -0.06666666666666665     -0.5499999999999997
0.7714150674603175        0.06666666666666662      -0.55
0.7730744325396826        -0.06666666666666651     -0.55
0.6707760246031748        0.33333333333333337      -0.55
0.7680963373015877        0.33333333333333337      -0.55
0.8167564936507941        0.33333333333333337      -0.55
0.6674572944444445        0.4666666666666667       -0.55
0.7194361809523812        0.33333333333333337      -0.55
0.7169471333333334        0.4666666666666667       -0.55
0.7664369722222221        0.46666666666666673      -0.55
0.7144580857142859        0.6                      -0.55
0.7647776071428574        0.6                      -0.55
0.8159268111111114        0.4666666666666667       -0.55
0.8654166500000002        0.33333333333333337      -0.5499999999999998
0.8654166500000002        0.4666666666666667       -0.5499999999999998
0.818415858730159         0.06666666666666668      -0.55
0.86541665                0.2                      -0.5499999999999997
0.8175861761904762        0.19999999999999993      -0.55
0.8654166500000002        0.06666666666666667      -0.5499999999999998
0.815097128571429         0.6000000000000001       -0.5500000000000002
0.8654166500000003        0.6                      -0.55
-0.5654499999999998       -0.6                     0.55
-0.5654499999999999       -0.6                     0.3928571428571431
-0.43874999999999975      -0.6                     0.55
-0.4406942857142856       -0.6                     0.39285714285714307
-0.5654499999999998       -0.6                     -0.39285714285714285
-0.4504157142857143       -0.6                     -0.3928571428571427
-0.5654499999999998       -0.6                     0.23571428571428582
-0.4426385714285712       -0.6                     0.23571428571428565
-0.3170895918367345       -0.6                     0.392857142857143
-0.32078632653061195      -0.6                     0.23571428571428582
-0.19348489795918347      -0.6                     0.3928571428571431
-0.3133928571428569       -0.6                     0.5500000000000002
-0.18803571428571406      -0.6000000000000001      0.5500000000000003
-0.06267857142857118      -0.6                     0.5500000000000002
-0.56545                  -0.6000000000000001      -0.2357142857142857
-0.4484714285714286       -0.6                     -0.23571428571428582
-0.33557326530612236      -0.6                     -0.3928571428571428
-0.33187653061224454      -0.6                     -0.23571428571428554
-0.19893408163265283      -0.6                     0.23571428571428588
-0.06988020408163265      -0.6                     0.39285714285714307
0.06267857142857168       -0.6                     0.5500000000000002
0.05372448979591862       -0.6                     0.392857142857143
-0.5654499999999998       -0.6                     0.0785714285714287
-0.3281797959183671       -0.6                     -0.07857142857142813
-0.32448306122448944      -0.6                     0.07857142857142878
-0.4445828571428569       -0.6                     0.07857142857142872
-0.5654499999999999       -0.6000000000000001      -0.07857142857142847
-0.44652714285714257      -0.6                     -0.07857142857142861
-0.20438326530612233      -0.6                     0.07857142857142896
-0.20983244897959172      -0.6                     -0.07857142857142849
0.18803571428571453       -0.6                     0.5500000000000002
0.17732918367346967       -0.6                     0.3928571428571429
0.3009338775510209        -0.6                     0.3928571428571429
0.31339285714285736       -0.6                     0.5500000000000003
-0.22073081632653035      -0.6                     -0.3928571428571428
-0.2152816326530609       -0.6                     -0.23571428571428546
-0.0914851020408163       -0.6                     -0.07857142857142836
-0.10588836734693864      -0.6                     -0.3928571428571429
-0.09868673469387736      -0.6                     -0.23571428571428568
0.026862244897959464      -0.6                     -0.07857142857142872
0.01790816326530673       -0.6                     -0.23571428571428568
0.008954081632653042      -0.6                     -0.3928571428571429
-0.07708183673469371      -0.6                     0.23571428571428582
0.03581632653061244       -0.6                     0.07857142857142861
-0.08428346938775524      -0.6                     0.07857142857142872
0.04477040816326589       -0.6                     0.23571428571428582
0.16662265306122478       -0.6                     0.23571428571428568
0.12379653061224544       -0.6                     -0.3928571428571431
0.2386389795918369        -0.6                     -0.3928571428571431
0.13450306122448988       -0.6                     -0.23571428571428568
0.14520959183673474       -0.6                     -0.07857142857142872
0.28847489795918363       -0.6                     0.23571428571428568
0.43875000000000025       -0.6                     0.5500000000000002
0.42453857142857176       -0.6                     0.3928571428571429
0.5021000000000003        -0.6000000000000001      0.5500000000000003
0.49499428571428655       -0.6                     0.3928571428571428
0.410327142857143         -0.6                     0.2357142857142858
0.39611571428571474       -0.6                     0.07857142857142849
0.27601591836734685       -0.6                     0.07857142857142861
0.15591612244897965       -0.6                     0.07857142857142861
0.26355693877551          -0.6                     -0.07857142857142885
0.3534814285714286        -0.6                     -0.392857142857143
0.2510979591836732        -0.6                     -0.23571428571428554
0.45946571428571453       -0.6                     -0.3928571428571429
0.5654500000000005        -0.6                     -0.3928571428571431
0.5654500000000003        -0.6                     -0.23571428571428582
0.3819042857142861        -0.6                     -0.07857142857142872
0.3676928571428573        -0.6                     -0.23571428571428582
0.4665714285714285        -0.6                     -0.23571428571428568
0.5654500000000003        -0.6                     0.39285714285714285
0.5654500000000003        -0.6                     0.5500000000000002
0.5654500000000003        -0.6                     -0.0785714285714287
0.47367714285714324       -0.6                     -0.07857142857142849
0.4807828571428568        -0.6                     0.07857142857142854
0.4878885714285714        -0.6                     0.23571428571428554
0.5654500000000005        -0.6000000000000001      0.2357142857142857
0.5654500000000005        -0.6000000000000001      0.07857142857142847
-0.41457342857142837      0.6                      -0.392857142857143
-0.51318                  0.6                      -0.3928571428571431
-0.4186028571428567       0.6                      -0.23571428571428582
-0.5131799999999997       0.6                      -0.23571428571428582
-0.42263228571428557      0.6                      -0.07857142857142867
-0.5131799999999997       0.6                      -0.0785714285714287
-0.43875000000000003      0.6                      0.55
-0.31339285714285714      0.6                      0.5500000000000002
-0.4347205714285715       0.6                      0.3928571428571429
-0.5131799999999999       0.6                      0.39285714285714285
-0.5131799999999999       0.6                      0.55
-0.18803571428571428      0.6                      0.5500000000000002
-0.31260930612244897      0.6                      0.392857142857143
-0.5131799999999999       0.6000000000000001       0.2357142857142857
-0.43069114285714316      0.6                      0.23571428571428568
-0.5131799999999999       0.6000000000000001       0.07857142857142847
-0.4266617142857142       0.6                      0.07857142857142849
-0.3102586530612241       0.6                      -0.07857142857142861
-0.30947510204081646      0.6                      -0.23571428571428568
-0.30869155102040835      0.6                      -0.392857142857143
-0.20280967346938805      0.6                      -0.3928571428571429
-0.2003473469387755       0.6                      -0.23571428571428568
-0.06267857142857138      0.5999999999999998       0.5499999999999999
-0.19049804081632696      0.6                      0.3928571428571431
-0.31182575510204086      0.6                      0.23571428571428568
-0.3110422040816325       0.6                      0.07857142857142872
-0.1978850204081632       0.6                      -0.07857142857142872
-0.19296036734693855      0.6                      0.23571428571428568
-0.19542269387755135      0.6                      0.07857142857142872
-0.06838677551020443      0.6                      0.3928571428571429
-0.09692779591836731      0.6                      -0.392857142857143
0.008954081632652974      0.6                      -0.3928571428571429
0.1148359591836735        0.6                      -0.3928571428571429
0.220717836734694         0.6                      -0.3928571428571428
-0.09121959183673455      0.6                      -0.23571428571428582
0.017908163265306188      0.6                      -0.23571428571428568
-0.08551138775510225      0.6                      -0.07857142857142872
0.06267857142857143       0.5999999999999999       0.55
0.053724489795918075      0.6                      0.3928571428571431
-0.07980318367346925      0.6                      0.07857142857142849
-0.07409497959183672      0.6                      0.23571428571428568
0.04477040816326487       0.6                      0.23571428571428593
0.026862244897959162      0.6                      -0.07857142857142861
0.035816326530612376      0.6                      0.07857142857142872
0.3265997142857143        0.6                      -0.3928571428571428
0.1270359183673474        0.6                      -0.23571428571428568
0.23616367346938774       0.6                      -0.23571428571428554
0.13923587755102082       0.6                      -0.07857142857142861
0.1880357142857142        0.6                      0.55
0.17583575510204058       0.6                      0.3928571428571431
0.16363579591836716       0.6                      0.23571428571428593
0.15143583673469352       0.6                      0.07857142857142872
0.2825011836734692        0.6                      0.23571428571428568
0.25160951020408173       0.6                      -0.07857142857142854