% Model:              Box_wing_Wings_center_009.mph
% Version:            COMSOL 6.2.0.415
% Date:               Oct 15 2024, 10:31
% Dimension:          3
% Nodes:              780
% Elements:           1552
% Expressions:        1
% Description:        Impostazioni materiale
% Length unit:        m
% Coordinates
-0.5                      -6.705                   0.05
-0.5                      -5.939999999999999       0.05
-0.5                      -6.704999999999999       -3.2526065174565133E-18
-0.49999999999999994      -5.939999999999998       0
-0.5                      -6.705                   -0.05
-0.5                      -5.551999999999999       0.05
-0.5                      -5.939999999999999       -0.05
-0.49999999999999994      -5.551999999999997       0
-0.5                      -5.163999999999999       0.05
-0.5                      -5.551999999999999       -0.05
-0.49999999999999994      -5.163999999999999       0
-0.5                      -4.776                   0.05
-0.5                      -5.163999999999999       -0.05
-0.49999999999999994      -4.775999999999998       0
-0.5                      -4.387999999999999       0.05
-0.4999999999999999       -4.775999999999998       -0.049999999999999996
-0.49999999999999994      -4.387999999999999       0
-0.5                      -3.9999999999999996      0.05
-0.5                      -4.387999999999999       -0.05
-0.49999999999999994      -3.9999999999999973      0
-0.49999999999999994      -3.6119999999999988      0.049999999999999996
-0.4999999999999999       -3.9999999999999982      -0.049999999999999996
-0.49999999999999994      -3.6119999999999988      0
-0.5                      -3.2239999999999998      0.05
-0.49999999999999994      -3.2239999999999993      0
-0.5                      -2.8359999999999994      0.049999999999999996
-0.5                      -3.611999999999999       -0.05
-0.49999999999999994      -2.8359999999999994      0
-0.5                      -2.448                   0.05
-0.5                      -3.2239999999999993      -0.05
-0.49999999999999994      -2.448                   -7.444045380111674E-18
-0.5                      -2.06                    0.05
-0.5                      -2.836                   -0.05
-0.49999999999999994      -2.06                    0
-0.5                      -1.907                   0.05
-0.5                      -2.448                   -0.05
-0.49999999999999994      -1.9069999999999998      0
-0.5                      -1.7540000000000002      0.05
-0.5                      -2.06                    -0.05
-0.49999999999999994      -1.7540000000000007      0
-0.5                      -1.601                   0.05
-0.5                      -1.9070000000000003      -0.05
-0.49999999999999994      -1.6010000000000004      0
-0.5                      -1.448                   0.05
-0.5                      -1.7540000000000002      -0.05
-0.49999999999999994      -1.4480000000000013      0
-0.5                      -1.295                   0.05
-0.5                      -1.601                   -0.05
-0.5                      -1.295                   -3.2526065174565133E-18
-0.5                      -1.4479999999999997      -0.05
-0.5                      -1.295                   -0.05
0.5                       -6.704999999999999       -3.2526065174565133E-18
0.5                       -6.705                   0.05
0.3888888888888889        -6.705                   0
0.3888888888888889        -6.705000000000002       0.05000000000000001
0.5                       -6.705                   -0.05
0.3888888888888889        -6.705000000000002       -0.05000000000000001
0.2777777777777776        -6.705                   0
0.2777777777777776        -6.705                   0.05
0.27777777777777757       -6.705                   -0.05
0.16666666666666652       -6.705                   0
0.16666666666666655       -6.704999999999999       0.05
0.1666666666666665        -6.705                   -0.05000000000000001
0.05555555555555539       -6.705                   0
0.055555555555555525      -6.705                   0.05
0.055555555555555414      -6.705                   -0.05
-0.05555555555555562      -6.705                   0
-0.05555555555555562      -6.705000000000001       0.05000000000000002
-0.05555555555555562      -6.705000000000001       -0.05000000000000002
-0.1666666666666668       -6.705                   0
-0.1666666666666667       -6.705000000000001       0.05
-0.1666666666666668       -6.705                   -0.049999999999999996
-0.27777777777777785      -6.705                   0
-0.2777777777777779       -6.705000000000001       0.05000000000000001
-0.2777777777777779       -6.705000000000001       -0.05000000000000001
-0.3888888888888889       -6.705                   0
-0.3888888888888889       -6.704999999999999       0.05
-0.3888888888888889       -6.704999999999999       -0.05
0.3888888888888889        -1.2950000000000002      0.05
0.5                       -1.295                   0.05
0.3888888888888889        -1.295                   0
0.5                       -1.295                   -3.2526065174565133E-18
0.3888888888888889        -1.2950000000000002      -0.05
0.5                       -1.295                   -0.05
0.2777777777777779        -1.295                   0.05000000000000001
0.27777777777777785       -1.295                   0
0.2777777777777779        -1.295                   -0.05000000000000001
0.1666666666666667        -1.295                   0.05
0.1666666666666668        -1.295                   0
0.1666666666666668        -1.295                   -0.049999999999999996
0.05555555555555562       -1.2950000000000002      0.05000000000000002
0.05555555555555562       -1.295                   0
0.05555555555555562       -1.2950000000000002      -0.05000000000000002
-0.055555555555555525     -1.295                   0.05
-0.05555555555555539      -1.295                   0
-0.055555555555555414     -1.295                   -0.05
-0.16666666666666655      -1.295                   0.05
-0.16666666666666652      -1.295                   0
-0.1666666666666665       -1.2950000000000002      -0.05000000000000001
-0.2777777777777776       -1.295                   0.05
-0.2777777777777776       -1.295                   0
-0.27777777777777757      -1.295                   -0.05
-0.3888888888888889       -1.2950000000000004      0.05000000000000001
-0.3888888888888889       -1.295                   0
-0.3888888888888889       -1.2950000000000004      -0.05000000000000001
-0.5                      6.705                    -0.05
-0.5                      5.939999999999999        -0.05
-0.5                      6.704999999999999        -3.2526065174565133E-18
-0.49999999999999994      5.939999999999998        0
-0.5                      6.705                    0.05
-0.5                      5.939999999999999        0.05
-0.5                      5.551999999999998        -0.05
-0.49999999999999994      5.551999999999998        0
-0.5                      5.552                    0.05
-0.5                      5.164                    -0.05000000000000001
-0.49999999999999994      5.163999999999998        0
-0.49999999999999994      5.163999999999999        0.05
-0.5                      4.775999999999999        -0.05
-0.49999999999999994      4.775999999999997        0
-0.5                      4.775999999999999        0.05
-0.5                      4.388                    -0.05000000000000001
-0.49999999999999994      4.387999999999999        0
-0.5                      4.388                    0.05
-0.5                      3.9999999999999996       -0.05
-0.49999999999999994      3.999999999999999        0
-0.5                      3.9999999999999996       0.05
-0.5                      3.612                    -0.05
-0.49999999999999994      3.612                    0
-0.5                      3.612                    0.05
-0.4999999999999999       3.2239999999999998       -0.049999999999999996
-0.49999999999999994      3.2239999999999993       0
-0.5                      3.224                    0.05
-0.5                      2.836                    -0.05
-0.49999999999999994      2.8359999999999994       0
-0.5                      2.8360000000000003       0.05
-0.5                      2.4480000000000004       -0.05
-0.49999999999999994      2.448000000000001        0
-0.5                      2.4480000000000004       0.05
-0.5                      2.06                     -0.05
-0.49999999999999994      2.06                     -1.488809076022335E-17
-0.5                      2.060000000000001        0.05
-0.5                      1.9070000000000005       -0.05
-0.49999999999999994      1.907000000000001        0
-0.5                      1.9070000000000011       0.05
-0.5                      1.754                    -0.05
-0.49999999999999994      1.754                    -1.488809076022335E-17
-0.5                      1.7540000000000007       0.05000000000000001
-0.5                      1.6010000000000004       -0.05
-0.49999999999999994      1.6010000000000004       0
-0.5                      1.6010000000000004       0.05
-0.5                      1.448                    -0.05
-0.49999999999999994      1.4480000000000002       0
-0.5                      1.4480000000000006       0.05
-0.5                      1.295                    -0.05
-0.5                      1.295                    -3.2526065174565133E-18
-0.5                      1.295                    0.05
-0.3888888888888889       1.2950000000000002       -0.05
-0.3888888888888889       1.295                    0
-0.3888888888888889       1.2950000000000002       0.05
-0.2777777777777779       1.295                    -0.05000000000000001
-0.27777777777777785      1.295                    0
-0.2777777777777779       1.295                    0.05000000000000001
-0.1666666666666668       1.295                    -0.049999999999999996
-0.1666666666666668       1.295                    0
-0.1666666666666667       1.295                    0.05
-0.05555555555555562      1.2950000000000002       -0.05000000000000002
-0.05555555555555562      1.295                    0
-0.05555555555555562      1.2950000000000002       0.05000000000000002
0.055555555555555414      1.295                    -0.05
0.05555555555555539       1.295                    0
0.055555555555555525      1.295                    0.05
0.1666666666666665        1.2950000000000002       -0.05000000000000001
0.16666666666666652       1.295                    0
0.16666666666666655       1.295                    0.05
0.27777777777777757       1.295                    -0.05
0.2777777777777776        1.295                    0
0.2777777777777776        1.295                    0.05
0.3888888888888889        1.2950000000000004       -0.05000000000000001
0.3888888888888889        1.295                    0
0.5                       1.295                    -0.05
0.5                       1.295                    -3.2526065174565133E-18
0.3888888888888889        1.2950000000000004       0.05000000000000001
0.5                       1.295                    0.05
-0.3888888888888889       6.705                    0
-0.3888888888888889       6.705000000000002        -0.05000000000000001
-0.3888888888888889       6.705000000000002        0.05000000000000001
-0.2777777777777776       6.705                    0
-0.27777777777777757      6.705                    -0.05
-0.2777777777777776       6.705                    0.05
-0.16666666666666652      6.705                    0
-0.1666666666666665       6.705                    -0.05000000000000001
-0.16666666666666655      6.704999999999999        0.05
-0.05555555555555539      6.705                    0
-0.055555555555555414     6.705                    -0.05
-0.055555555555555525     6.705                    0.05
0.05555555555555562       6.705                    0
0.05555555555555562       6.705000000000001        -0.05000000000000002
0.05555555555555562       6.705000000000001        0.05000000000000002
0.1666666666666668        6.705                    0
0.1666666666666668        6.705                    -0.049999999999999996
0.1666666666666667        6.705000000000001        0.05
0.27777777777777785       6.705                    0
0.2777777777777779        6.705000000000001        -0.05000000000000001
0.2777777777777779        6.705000000000001        0.05000000000000001
0.3888888888888889        6.705                    0
0.3888888888888889        6.704999999999999        -0.05
0.5                       6.704999999999999        -3.2526065174565133E-18
0.5                       6.705                    -0.05
0.3888888888888889        6.704999999999999        0.05
0.5                       6.705                    0.05
0.5                       -5.939999999999999       0.05
0.49999999999999994       -5.939999999999998       0
0.5                       -5.939999999999999       -0.05
0.5                       -5.551999999999998       0.05
0.49999999999999994       -5.551999999999997       0
0.5                       -5.551999999999998       -0.05
0.5                       -5.164                   0.05
0.49999999999999994       -5.164                   0
0.49999999999999994       -5.163999999999999       -0.05
0.5                       -4.776                   0.05
0.49999999999999994       -4.775999999999999       0
0.5                       -4.775999999999999       -0.05
0.49999999999999994       -4.387999999999999       0.05
0.49999999999999994       -4.387999999999999       0
0.5                       -4.388                   -0.05
0.5                       -3.9999999999999996      0.05
0.49999999999999994       -3.999999999999999       0
0.5                       -3.9999999999999996      -0.05
0.5                       -3.6119999999999997      0.05
0.49999999999999994       -3.612                   0
0.5                       -3.612                   -0.05
0.5                       -3.2239999999999998      0.05
0.49999999999999994       -3.2239999999999993      0
0.5                       -3.224                   -0.05
0.5                       -2.836                   0.05
0.49999999999999994       -2.836                   0
0.5                       -2.8360000000000003      -0.05
0.5                       -2.448                   0.05
0.49999999999999994       -2.4480000000000004      0
0.5                       -2.4480000000000004      -0.05
0.5                       -2.06                    0.05
0.49999999999999994       -2.0600000000000005      0
0.5                       -2.060000000000001       -0.05
0.5                       -1.907                   0.05
0.49999999999999994       -1.907                   -1.488809076022335E-17
0.5                       -1.9070000000000007      -0.05
0.5                       -1.754                   0.05
0.49999999999999994       -1.7540000000000007      1.488809076022335E-17
0.5                       -1.754000000000001       -0.05
0.5                       -1.6010000000000002      0.05
0.49999999999999994       -1.6010000000000002      0
0.5                       -1.6010000000000004      -0.05
0.5                       -1.4480000000000002      0.05
0.49999999999999994       -1.4480000000000004      0
0.5                       -1.448000000000001       -0.05
0.5                       5.939999999999999        -0.05
0.49999999999999994       5.939999999999998        0
0.5                       5.551999999999999        -0.05
0.49999999999999994       5.551999999999997        0
0.5                       5.163999999999999        -0.05
0.5                       5.939999999999999        0.05
0.49999999999999994       5.163999999999999        0
0.4999999999999999        4.775999999999998        -0.049999999999999996
0.5                       5.551999999999999        0.05
0.49999999999999994       4.775999999999998        0
0.5                       4.387999999999999        -0.05
0.5                       5.163999999999999        0.05
0.49999999999999994       4.387999999999999        0
0.4999999999999999        3.9999999999999982       -0.049999999999999996
0.4999999999999999        4.775999999999998        0.049999999999999996
0.49999999999999994       3.9999999999999973       0
0.5                       3.611999999999999        -0.05
0.5                       4.387999999999999        0.05
0.49999999999999994       3.611999999999999        0
0.5                       3.2239999999999993       -0.05
0.5                       3.9999999999999996       0.05
0.49999999999999994       3.2239999999999993       1.488809076022335E-17
0.5                       2.836                    -0.05
0.5                       3.611999999999999        0.05
0.49999999999999994       2.8359999999999994       0
0.5                       2.448                    -0.05
0.5                       3.2239999999999993       0.05
0.49999999999999994       2.448                    0
0.5                       2.06                     -0.05
0.5                       2.8359999999999994       0.049999999999999996
0.49999999999999994       2.06                     0
0.5                       1.9070000000000003       -0.05
0.5                       2.448                    0.05
0.49999999999999994       1.9069999999999998       0
0.5                       1.7540000000000002       -0.05
0.5                       2.06                     0.05
0.49999999999999994       1.7540000000000007       0
0.5                       1.601                    -0.05
0.5                       1.9070000000000003       0.05
0.49999999999999994       1.6010000000000004       0
0.5                       1.4479999999999997       -0.05
0.5                       1.7540000000000002       0.05
0.49999999999999994       1.4479999999999993       0
0.5                       1.601                    0.05
0.5                       1.4479999999999997       0.05
0.3888888888888889        -5.939999999999998       -0.049999999999999996
0.2777777777777778        -5.939999999999999       -0.05
0.1666666666666667        -5.9399999999999995      -0.05000000000000002
0.05555555555555558       -5.9399999999999995      -0.05
-0.05555555555555561      -5.939999999999999       -0.05000000000000002
-0.16666666666666669      -5.939999999999998       -0.05
-0.2777777777777779       -5.94                    -0.05000000000000001
-0.388888888888889        -5.939999999999998       -0.05
0.3888888888888889        -5.939999999999998       0.05
0.2777777777777779        -5.94                    0.05000000000000001
0.1666666666666667        -5.939999999999999       0.05
0.05555555555555561       -5.939999999999999       0.05000000000000002
-0.05555555555555558      -5.9399999999999995      0.05
-0.1666666666666666       -5.939999999999998       0.05
-0.2777777777777776       -5.939999999999999       0.05
-0.3888888888888889       -5.94                    0.05000000000000001
0.388888888888889         -2.0600000000000005      -0.05
0.3888888888888889        -1.9069999999999998      -0.05
0.2777777777777779        -2.0600000000000005      -0.05000000000000001
0.3888888888888889        -1.7540000000000007      -0.05
0.16666666666666669       -2.0600000000000005      -0.05
0.27777777777777773       -1.9069999999999998      -0.05
0.3888888888888889        -1.6010000000000004      -0.05
0.27777777777777773       -1.7540000000000007      -0.05
0.05555555555555561       -2.060000000000001       -0.05000000000000002
0.16666666666666663       -1.9069999999999998      -0.05
0.3888888888888889        -1.4480000000000002      -0.05
0.27777777777777785       -1.6010000000000004      -0.05
-0.05555555555555558      -2.0600000000000005      -0.05
0.05555555555555562       -1.9069999999999998      -0.05
0.16666666666666663       -1.7540000000000007      -0.05
0.27777777777777785       -1.4480000000000002      -0.05
-0.1666666666666667       -2.0600000000000005      -0.05000000000000002
-0.05555555555555562      -1.9069999999999998      -0.05
0.16666666666666674       -1.6010000000000004      -0.05
0.05555555555555562       -1.7540000000000007      -0.05
-0.2777777777777778       -2.0600000000000005      -0.05
-0.16666666666666685      -1.9069999999999998      -0.05
0.16666666666666674       -1.4480000000000002      -0.05
-0.05555555555555562      -1.7540000000000007      -0.05
0.05555555555555574       -1.6010000000000004      -0.05
-0.3888888888888889       -2.06                    -0.049999999999999996
-0.27777777777777773      -1.9069999999999998      -0.05
-0.16666666666666652      -1.7540000000000007      -0.05
0.05555555555555562       -1.4480000000000002      -0.05
-0.055555555555555504     -1.6010000000000004      -0.05
-0.388888888888889        -1.9069999999999998      -0.05
-0.27777777777777773      -1.7540000000000007      -0.05
-0.16666666666666652      -1.6010000000000004      -0.05
-0.055555555555555386     -1.4479999999999993      -0.05
-0.38888888888888923      -1.7540000000000007      -0.05
-0.27777777777777773      -1.6010000000000004      -0.05
-0.16666666666666652      -1.4479999999999993      -0.05
-0.388888888888889        -1.6010000000000004      -0.05
-0.2777777777777775       -1.4480000000000002      -0.05
-0.3888888888888889       -1.4480000000000002      -0.05
0.3888888888888889        -2.0600000000000005      0.05000000000000001
0.3888888888888889        -1.907                   0.05
0.2777777777777776        -2.06                    0.05
0.3888888888888889        -1.7540000000000002      0.05
0.27777777777777773       -1.907                   0.05
0.1666666666666666        -2.06                    0.05
0.3888888888888889        -1.6010000000000004      0.05
0.27777777777777773       -1.754                   0.05
0.16666666666666663       -1.907                   0.05
0.05555555555555558       -2.06                    0.05
0.3888888888888889        -1.448                   0.05
0.27777777777777785       -1.6010000000000002      0.05
0.16666666666666663       -1.7540000000000002      0.05
0.05555555555555562       -1.907                   0.05
-0.05555555555555561      -2.0600000000000005      0.05000000000000002
0.27777777777777785       -1.448                   0.05
0.16666666666666674       -1.6010000000000002      0.05
-0.05555555555555562      -1.907                   0.05
-0.1666666666666667       -2.06                    0.05
0.05555555555555562       -1.7540000000000002      0.05
-0.16666666666666685      -1.907                   0.05
-0.2777777777777779       -2.0600000000000005      0.05000000000000001
0.16666666666666674       -1.448                   0.05
0.055555555555555684      -1.6010000000000004      0.05
-0.05555555555555562      -1.754                   0.05
-0.27777777777777773      -1.907                   0.05
-0.3888888888888889       -2.06                    0.05
-0.388888888888889        -1.907                   0.05
-0.16666666666666652      -1.754                   0.05
0.055555555555555566      -1.448                   0.05
-0.055555555555555504     -1.6010000000000002      0.05
-0.27777777777777773      -1.754                   0.05
-0.38888888888888923      -1.7540000000000002      0.05
-0.16666666666666652      -1.6010000000000002      0.05
-0.05555555555555539      -1.4479999999999997      0.05
-0.27777777777777773      -1.6010000000000002      0.05
-0.388888888888889        -1.6010000000000004      0.05
-0.16666666666666652      -1.4479999999999997      0.05
-0.2777777777777775       -1.448                   0.05
-0.3888888888888889       -1.4480000000000002      0.05
-0.388888888888889        2.0600000000000005       -0.05
-0.3888888888888889       1.9070000000000014       -0.05
-0.2777777777777779       2.0600000000000005       -0.05000000000000001
-0.3888888888888889       1.7540000000000016       -0.05
-0.2777777777777775       1.9070000000000014       -0.05
-0.16666666666666669      2.06                     -0.05
-0.3888888888888887       1.6010000000000009       -0.05
-0.16666666666666674      1.9070000000000014       -0.05
-0.05555555555555561      2.0600000000000005       -0.05000000000000002
-0.27777777777777773      1.7540000000000016       -0.05
-0.05555555555555562      1.9070000000000016       -0.05
0.05555555555555558       2.06                     -0.05
-0.38888888888888873      1.4480000000000008       -0.05
-0.27777777777777773      1.6010000000000009       -0.05
-0.16666666666666685      1.7540000000000016       -0.05
0.055555555555555504      1.9070000000000022       -0.05
0.1666666666666667        2.06                     -0.05000000000000002
-0.05555555555555562      1.7540000000000013       -0.05
-0.2777777777777777       1.448000000000002        -0.05
-0.16666666666666674      1.6010000000000018       -0.05
0.16666666666666674       1.9070000000000005       -0.05
0.2777777777777778        2.06                     -0.05
0.05555555555555574       1.7540000000000013       -0.05
-0.05555555555555574      1.6010000000000013       -0.05
-0.16666666666666674      1.448                    -0.05
0.27777777777777773       1.9070000000000003       -0.05
0.3888888888888889        2.0599999999999996       -0.049999999999999996
0.3888888888888889        1.9070000000000003       -0.05
0.16666666666666674       1.7540000000000013       -0.05
0.05555555555555562       1.6010000000000009       -0.05
-0.05555555555555586      1.4479999999999997       -0.05
0.27777777777777785       1.7539999999999996       -0.05
0.3888888888888889        1.7540000000000016       -0.05
0.16666666666666663       1.6010000000000013       -0.05
0.055555555555555504      1.4480000000000008       -0.05
0.2777777777777776        1.6009999999999989       -0.05
0.3888888888888889        1.601000000000001        -0.05
0.16666666666666674       1.448                    -0.05
0.2777777777777776        1.448000000000002        -0.05
0.3888888888888889        1.448                    -0.05
-0.3888888888888889       2.060000000000001        0.05000000000000001
-0.3888888888888889       1.907000000000001        0.05
-0.2777777777777776       2.0600000000000005       0.05
-0.2777777777777775       1.907000000000001        0.05
-0.1666666666666666       2.0600000000000005       0.05
-0.3888888888888889       1.7540000000000007       0.05
-0.16666666666666674      1.907000000000001        0.05
-0.05555555555555558      2.0600000000000005       0.05
-0.38888888888888873      1.6010000000000004       0.05
-0.27777777777777773      1.7540000000000007       0.05
-0.05555555555555562      1.907000000000001        0.05
0.05555555555555561       2.060000000000001        0.05000000000000002
-0.38888888888888873      1.4480000000000002       0.05
-0.16666666666666685      1.7540000000000007       0.05
-0.27777777777777773      1.6010000000000004       0.05
0.055555555555555504      1.9070000000000016       0.05
0.1666666666666667        2.0600000000000005       0.05
-0.05555555555555562      1.7540000000000007       0.05
-0.2777777777777776       1.4480000000000013       0.05
-0.16666666666666674      1.6010000000000013       0.05
0.16666666666666674       1.9069999999999998       0.05
0.2777777777777779        2.0600000000000005       0.05000000000000001
0.055555555555555684      1.7540000000000007       0.05
-0.05555555555555574      1.6010000000000004       0.05
-0.16666666666666674      1.4479999999999993       0.05
0.2777777777777778        1.9069999999999998       0.05
0.3888888888888889        2.0600000000000005       0.05
0.16666666666666674       1.7540000000000007       0.05
0.05555555555555562       1.6010000000000004       0.05
-0.05555555555555586      1.4479999999999993       0.05
0.3888888888888889        1.9069999999999998       0.05
0.27777777777777785       1.753999999999999        0.05
0.16666666666666663       1.6010000000000004       0.05
0.055555555555555504      1.4480000000000002       0.05
0.3888888888888889        1.7540000000000007       0.05
0.2777777777777777        1.6009999999999984       0.05
0.16666666666666669       1.4479999999999993       0.05
0.3888888888888889        1.6010000000000004       0.05
0.2777777777777777        1.4480000000000013       0.05
0.3888888888888889        1.4479999999999993       0.05
-0.3888888888888889       5.939999999999998        -0.049999999999999996
-0.2777777777777778       5.939999999999999        -0.05
-0.1666666666666667       5.9399999999999995       -0.05000000000000002
-0.05555555555555558      5.9399999999999995       -0.05
0.05555555555555561       5.939999999999999        -0.05000000000000002
0.16666666666666669       5.939999999999998        -0.05
0.2777777777777779        5.94                     -0.05000000000000001
0.388888888888889         5.939999999999998        -0.05
-0.3888888888888889       5.939999999999998        0.05
-0.2777777777777779       5.94                     0.05000000000000001
-0.1666666666666667       5.939999999999999        0.05
-0.05555555555555561      5.939999999999999        0.05000000000000002
0.05555555555555558       5.9399999999999995       0.05
0.1666666666666666        5.939999999999998        0.05
0.2777777777777776        5.939999999999999        0.05
0.3888888888888889        5.94                     0.05000000000000001
0.3888888888888889        -5.551999999999997       -0.05
0.27777777777777785       -5.551999999999998       -0.05
0.3888888888888889        -5.1640000000000015      -0.05
0.16666666666666674       -5.551999999999998       -0.05
0.27777777777777785       -5.1640000000000015      -0.05
0.3888888888888889        -4.776                   -0.05
0.05555555555555574       -5.551999999999998       -0.05
0.16666666666666674       -5.1640000000000015      -0.05
0.27777777777777785       -4.776000000000002       -0.05
0.3888888888888889        -4.387999999999998       -0.05
-0.05555555555555574      -5.552                   -0.05
0.05555555555555562       -5.1640000000000015      -0.05
0.16666666666666674       -4.776000000000002       -0.05
0.27777777777777773       -4.387999999999999       -0.05