% Model:              Box_wing_Wings_center_003.mph
% Version:            COMSOL 6.0.0.405
% Date:               Jul 27 2023, 16:05
% Dimension:          3
% Nodes:              360
% Elements:           408
% Expressions:        1
% Description:        Material settings
% Length unit:        m
% Coordinates
-0.5500000000000002       -6.9188                  0.05
-0.5500000000000003       -6.570900000000002       0.05000000000000001
-0.5500000000000002       -6.9188                  -0.05
-0.5500000000000003       -6.570900000000002       -0.05000000000000001
-0.5500000000000002       -6.223000000000001       0.05
-0.5500000000000002       -6.223000000000001       -0.05
-0.55                     -5.782100000000001       0.049999999999999996
-0.55                     -5.782100000000001       -0.049999999999999996
-0.5500000000000002       -5.341200000000001       0.05
-0.5500000000000002       -5.341200000000001       -0.05
-0.5500000000000003       -4.900300000000001       0.05000000000000001
-0.5500000000000003       -4.900300000000001       -0.05000000000000001
-0.5500000000000002       -4.4594000000000005      0.05
-0.5500000000000002       -4.4594000000000005      -0.05
-0.5500000000000003       -4.0185                  0.05
-0.5500000000000003       -4.0185                  -0.05
-0.5500000000000002       -3.5776000000000003      0.05
-0.5500000000000002       -3.5776000000000003      -0.05
-0.5500000000000002       -3.1367000000000007      0.05000000000000002
-0.5500000000000002       -3.1367000000000007      -0.05000000000000002
-0.5500000000000002       -2.6958                  0.05
-0.5500000000000002       -2.6958                  -0.05
-0.55                     -2.3479                  0.05
-0.55                     -2.3479                  -0.05
-0.5500000000000002       -2                       0.05
-0.5500000000000002       -2                       -0.05
0.1833333333333333        -6.918799999999999       0.05000000000000001
0.1833333333333333        -6.918799999999999       -0.05000000000000001
0.5499999999999999        -6.9188                  0.05
0.5499999999999999        -6.9188                  -0.05
-0.18333333333333343      -6.9188                  -0.05
-0.18333333333333343      -6.9188                  0.05
-0.18333333333333351      -2                       0.05000000000000001
-0.18333333333333351      -2                       -0.05000000000000001
0.18333333333333324       -2                       0.05
0.18333333333333324       -2                       -0.05
0.5499999999999999        -2                       0.05
0.5499999999999999        -2                       -0.05
-0.5500000000000002       6.9188                   -0.05
-0.5500000000000002       6.5709                   -0.05
-0.5500000000000002       6.9188                   0.05
-0.5500000000000002       6.5709                   0.05
-0.5500000000000002       6.223000000000001        -0.05
-0.5500000000000002       6.223000000000001        0.05
-0.5500000000000002       5.782100000000001        -0.05
-0.5500000000000002       5.782100000000001        0.05
-0.5500000000000003       5.3412000000000015       -0.05000000000000002
-0.5500000000000003       5.3412000000000015       0.05000000000000002
-0.5500000000000002       4.9003000000000005       -0.05
-0.5500000000000002       4.9003000000000005       0.05
-0.5500000000000002       4.4594000000000005       -0.05
-0.5500000000000002       4.4594000000000005       0.05
-0.5500000000000002       4.0184999999999995       -0.049999999999999996
-0.5500000000000002       4.0184999999999995       0.049999999999999996
-0.5500000000000002       3.577600000000001        -0.05
-0.5500000000000002       3.577600000000001        0.05
-0.5500000000000002       3.1367000000000003       0.05
-0.5500000000000002       3.1367000000000003       -0.05
-0.5500000000000002       2.6958                   -0.05
-0.5500000000000002       2.6958                   0.05
-0.5500000000000002       2.3479                   0.05
-0.5500000000000002       2.3479                   -0.05
-0.5500000000000002       2                        0.05
-0.5500000000000002       2                        -0.05
-0.18333333333333335      2                        0.05
-0.18333333333333335      2                        -0.05
0.18333333333333326       2                        0.05000000000000001
0.18333333333333326       2                        -0.05000000000000001
0.5499999999999999        2                        0.05
0.5499999999999999        2                        -0.05
-0.18333333333333357      6.918800000000002        0.05000000000000001
-0.18333333333333357      6.918800000000002        -0.05000000000000001
0.18333333333333318       6.9188                   0.05
0.18333333333333318       6.9188                   -0.05
0.5499999999999999        6.9188                   0.05
0.5499999999999999        6.9188                   -0.05
0.5499999999999999        -6.5709                  0.05
0.5499999999999999        -6.5709                  -0.05
0.5499999999999999        -6.223000000000001       0.05
0.5499999999999999        -6.223000000000001       -0.05
0.5499999999999999        -5.782100000000002       0.05000000000000001
0.5499999999999999        -5.782100000000002       -0.05000000000000001
0.5499999999999998        -5.341200000000001       0.05
0.5499999999999998        -5.341200000000001       -0.05
0.5499999999999999        -4.9003000000000005      0.05
0.5499999999999999        -4.9003000000000005      -0.05
0.5499999999999999        -4.4594000000000005      0.05
0.5499999999999999        -4.4594000000000005      -0.05
0.5499999999999998        -4.0185                  0.049999999999999996
0.5499999999999998        -4.0185                  -0.049999999999999996
0.5499999999999999        -3.5776000000000003      0.05
0.5499999999999999        -3.5776000000000003      -0.05
0.5499999999999999        -3.1367000000000003      0.05
0.5499999999999999        -3.1367000000000003      -0.05
0.5499999999999999        -2.6958                  0.05
0.5499999999999999        -2.6958                  -0.05
0.5499999999999999        -2.3479                  0.05
0.5499999999999999        -2.3479                  -0.05
0.5499999999999999        6.5709                   -0.05
0.5499999999999999        6.5709                   0.05
0.5499999999999999        6.223000000000001        -0.05
0.5499999999999999        6.223000000000001        0.05
0.5499999999999999        5.7821                   -0.049999999999999996
0.5499999999999999        5.7821                   0.049999999999999996
0.55                      5.341200000000001        -0.05000000000000001
0.55                      5.341200000000001        0.05000000000000001
0.5499999999999999        4.900300000000001        -0.05000000000000001
0.5499999999999999        4.900300000000001        0.05000000000000001
0.5499999999999999        4.4594000000000005       -0.05
0.5499999999999999        4.4594000000000005       0.05
0.5499999999999999        4.0185                   -0.05
0.5499999999999999        4.0185                   0.05
0.5499999999999998        3.577600000000001        -0.05
0.5499999999999998        3.577600000000001        0.05
0.5499999999999999        3.1367000000000003       -0.05000000000000001
0.5499999999999999        3.1367000000000003       0.05000000000000001
0.5499999999999999        2.6958                   -0.05
0.5499999999999999        2.6958                   0.05
0.5499999999999998        2.3479                   -0.05
0.5499999999999998        2.3479                   0.05
0.1833333333333333        -6.918799999999999       -0.05000000000000001
-0.18333333333333343      -6.9188                  -0.05
0.1833333333333333        -6.5709                  -0.05
0.5499999999999999        -6.9188                  -0.05
0.5499999999999999        -6.5709                  -0.05
-0.5500000000000002       -6.9188                  -0.05
-0.18333333333333343      -6.570900000000001       -0.05
-0.5500000000000003       -6.570900000000002       -0.05000000000000001
0.1833333333333332        -6.223                   -0.05
0.5499999999999999        -6.223000000000001       -0.05
-0.1833333333333334       -6.223000000000001       -0.05
-0.5500000000000002       -6.223000000000001       -0.05
0.1833333333333333        -6.918799999999999       0.05000000000000001
0.18333333333333338       -6.570900000000001       0.05
-0.18333333333333343      -6.9188                  0.05
0.5499999999999999        -6.9188                  0.05
0.5499999999999999        -6.5709                  0.05
-0.1833333333333335       -6.570900000000001       0.05
-0.5500000000000002       -6.9188                  0.05
-0.5500000000000003       -6.570900000000002       0.05000000000000001
0.18333333333333326       -6.223000000000002       0.05000000000000001
0.5499999999999999        -6.223000000000001       0.05
-0.18333333333333343      -6.223000000000001       0.05000000000000001
-0.5500000000000002       -6.223000000000001       0.05
-0.55                     -2.3479                  -0.05
-0.18333333333333343      -2.3479                  -0.05
-0.5500000000000002       -2.6958                  -0.05
-0.1833333333333335       -2.6957999999999998      -0.05
-0.5500000000000002       -2                       -0.05
-0.18333333333333351      -2                       -0.05000000000000001
0.18333333333333315       -2.6958                  -0.05
0.18333333333333307       -2.3479                  -0.05
0.18333333333333324       -2                       -0.05
0.5499999999999999        -2.6958                  -0.05
0.5499999999999999        -2.3479                  -0.05
0.5499999999999999        -2                       -0.05
-0.5500000000000002       -2                       0.05
-0.55                     -2.3479                  0.05
-0.18333333333333351      -2                       0.05000000000000001
-0.1833333333333335       -2.6958                  0.05000000000000001
-0.1833333333333335       -2.3479                  0.05
-0.5500000000000002       -2.6958                  0.05
0.18333333333333326       -2.6958000000000006      0.05000000000000002
0.18333333333333324       -2.3479                  0.05
0.18333333333333324       -2                       0.05
0.5499999999999999        -2.6958                  0.05
0.5499999999999999        -2.3479                  0.05
0.5499999999999999        -2                       0.05
-0.5500000000000002       2.6958                   -0.05
-0.1833333333333334       2.6958                   -0.05
-0.5500000000000002       2.3479                   -0.05
-0.18333333333333343      2.3479                   -0.05
-0.5500000000000002       2                        -0.05
0.1833333333333332        2.6957999999999998       -0.05
-0.18333333333333335      2                        -0.05
0.1833333333333333        2.3479                   -0.05
0.5499999999999999        2.6958                   -0.05
0.18333333333333326       2                        -0.05000000000000001
0.5499999999999998        2.3479                   -0.05
0.5499999999999999        2                        -0.05
-0.5500000000000002       2.6958                   0.05
-0.5500000000000002       2.3479                   0.05
-0.18333333333333343      2.6958                   0.05000000000000001
-0.5500000000000002       2                        0.05
-0.1833333333333335       2.3479                   0.05
0.18333333333333326       2.6958                   0.05000000000000001
-0.18333333333333335      2                        0.05
0.18333333333333324       2.3479                   0.05
0.5499999999999999        2.6958                   0.05
0.18333333333333326       2                        0.05000000000000001
0.5499999999999998        2.3479                   0.05
0.5499999999999999        2                        0.05
-0.5500000000000002       6.9188                   -0.05
-0.18333333333333357      6.918800000000002        -0.05000000000000001
-0.5500000000000002       6.5709                   -0.05
-0.18333333333333354      6.5709                   -0.05
-0.5500000000000002       6.223000000000001        -0.05
0.18333333333333318       6.9188                   -0.05
0.5499999999999999        6.9188                   -0.05
0.18333333333333307       6.5709                   -0.05
-0.1833333333333335       6.223                    -0.05
0.5499999999999999        6.5709                   -0.05
0.18333333333333315       6.223000000000001        -0.05
0.5499999999999999        6.223000000000001        -0.05
-0.5500000000000002       6.9188                   0.05
-0.5500000000000002       6.5709                   0.05
-0.18333333333333357      6.918800000000002        0.05000000000000001
-0.1833333333333335       6.570900000000001        0.05
0.18333333333333318       6.9188                   0.05
-0.5500000000000002       6.223000000000001        0.05
0.18333333333333324       6.5709                   0.05
0.5499999999999999        6.9188                   0.05
-0.1833333333333335       6.223000000000001        0.05000000000000001
0.5499999999999999        6.5709                   0.05
0.18333333333333326       6.2230000000000025       0.05000000000000002
0.5499999999999999        6.223000000000001        0.05
0.1833333333333332        -6.223                   -0.05
-0.1833333333333334       -6.223000000000001       -0.05
0.18333333333333343       -5.782100000000001       -0.05
0.5499999999999999        -6.223000000000001       -0.05
0.5499999999999999        -5.782100000000002       -0.05000000000000001
-0.5500000000000002       -6.223000000000001       -0.05
-0.18333333333333318      -5.782100000000002       -0.05
-0.55                     -5.782100000000001       -0.049999999999999996
0.5499999999999998        -5.341200000000001       -0.05
0.18333333333333307       -5.3412                  -0.05
-0.18333333333333343      -5.341200000000001       -0.05
-0.5500000000000002       -5.341200000000001       -0.05
0.5499999999999999        -4.9003000000000005      -0.05
0.18333333333333318       -4.9003000000000005      -0.05
-0.5500000000000003       -4.900300000000001       -0.05000000000000001
-0.18333333333333343      -4.900300000000001       -0.05
-0.5500000000000002       -4.4594000000000005      -0.05
-0.18333333333333343      -4.4594000000000005      -0.05
0.5499999999999999        -4.4594000000000005      -0.05
0.18333333333333318       -4.4594                  -0.05
-0.5500000000000003       -4.0185                  -0.05
-0.1833333333333335       -4.018500000000001       -0.05
0.18333333333333318       -4.018500000000001       -0.05
0.5499999999999998        -4.0185                  -0.049999999999999996
-0.5500000000000002       -3.5776000000000003      -0.05
-0.18333333333333343      -3.5776                  -0.05
0.18333333333333318       -3.5776                  -0.05
0.5499999999999999        -3.5776000000000003      -0.05
-0.5500000000000002       -3.1367000000000007      -0.05000000000000002
-0.1833333333333336       -3.1367000000000007      -0.05
0.18333333333333293       -3.1367                  -0.05
0.5499999999999999        -3.1367000000000003      -0.05
-0.5500000000000002       -2.6958                  -0.05
-0.1833333333333335       -2.6957999999999998      -0.05
0.18333333333333315       -2.6958                  -0.05
0.5499999999999999        -2.6958                  -0.05
0.18333333333333326       -6.223000000000002       0.05000000000000001
0.18333333333333324       -5.7821000000000025      0.05
-0.18333333333333343      -6.223000000000001       0.05000000000000001
0.5499999999999999        -6.223000000000001       0.05
0.5499999999999999        -5.782100000000002       0.05000000000000001
-0.1833333333333335       -5.782100000000002       0.05
-0.5500000000000002       -6.223000000000001       0.05
-0.55                     -5.782100000000001       0.049999999999999996
0.5499999999999998        -5.341200000000001       0.05
-0.1833333333333335       -5.3412                  0.05
-0.5500000000000002       -5.341200000000001       0.05
0.18333333333333324       -5.3412                  0.05
0.5499999999999999        -4.9003000000000005      0.05
-0.1833333333333335       -4.900300000000001       0.05
-0.5500000000000003       -4.900300000000001       0.05000000000000001
0.18333333333333324       -4.900300000000002       0.05
0.5499999999999999        -4.4594000000000005      0.05
0.18333333333333324       -4.4594000000000005      0.05
-0.1833333333333335       -4.4594000000000005      0.05
-0.5500000000000002       -4.4594000000000005      0.05
0.5499999999999998        -4.0185                  0.049999999999999996
0.18333333333333313       -4.0185                  0.05
-0.1833333333333335       -4.018500000000001       0.05
-0.5500000000000003       -4.0185                  0.05
0.5499999999999999        -3.5776000000000003      0.05
-0.1833333333333335       -3.5776                  0.05
-0.5500000000000002       -3.5776000000000003      0.05
0.18333333333333324       -3.5776                  0.05
0.5499999999999999        -3.1367000000000003      0.05
-0.1833333333333335       -3.1367000000000007      0.05
-0.5500000000000002       -3.1367000000000007      0.05000000000000002
-0.5500000000000002       -2.6958                  0.05
-0.1833333333333335       -2.6958                  0.05000000000000001
0.18333333333333343       -3.1367000000000007      0.05
0.18333333333333326       -2.6958000000000006      0.05000000000000002
0.5499999999999999        -2.6958                  0.05
-0.5500000000000002       6.223000000000001        -0.05
-0.1833333333333335       6.223                    -0.05
-0.5500000000000002       5.782100000000001        -0.05
-0.1833333333333336       5.782100000000001        -0.05
0.18333333333333315       6.223000000000001        -0.05
-0.5500000000000003       5.3412000000000015       -0.05000000000000002
0.18333333333333293       5.782100000000001        -0.05
0.5499999999999999        6.223000000000001        -0.05
-0.18333333333333354      5.3412000000000015       -0.05
-0.5500000000000002       4.9003000000000005       -0.05
0.5499999999999999        5.7821                   -0.049999999999999996
0.1833333333333333        5.3412000000000015       -0.05
-0.18333333333333343      4.900300000000001        -0.05
-0.5500000000000002       4.4594000000000005       -0.05
0.55                      5.341200000000001        -0.05000000000000001
0.18333333333333318       4.900300000000002        -0.05
-0.1833333333333335       4.4594                   -0.05
-0.5500000000000002       4.0184999999999995       -0.049999999999999996
0.5499999999999999        4.900300000000001        -0.05000000000000001
0.18333333333333318       4.4594000000000005       -0.05
-0.18333333333333343      4.0184999999999995       -0.05
-0.5500000000000002       3.577600000000001        -0.05
0.5499999999999999        4.4594000000000005       -0.05
0.18333333333333318       4.0185                   -0.05
-0.18333333333333343      3.5776                   -0.05
-0.5500000000000002       3.1367000000000003       -0.05
0.5499999999999999        4.0185                   -0.05
-0.18333333333333338      3.1367                   -0.05
-0.5500000000000002       2.6958                   -0.05
0.18333333333333293       3.577600000000001        -0.05
0.5499999999999998        3.577600000000001        -0.05
-0.1833333333333334       2.6958                   -0.05
0.18333333333333343       3.1367000000000003       -0.05
0.5499999999999999        3.1367000000000003       -0.05000000000000001
0.1833333333333332        2.6957999999999998       -0.05
0.5499999999999999        2.6958                   -0.05
-0.5500000000000002       6.223000000000001        0.05
-0.5500000000000002       5.782100000000001        0.05
-0.1833333333333335       6.223000000000001        0.05000000000000001
-0.1833333333333336       5.7821000000000025       0.05
0.18333333333333326       6.2230000000000025       0.05000000000000002
-0.5500000000000003       5.3412000000000015       0.05000000000000002
0.18333333333333343       5.782100000000001        0.05
0.5499999999999999        6.223000000000001        0.05
-0.1833333333333335       5.3412000000000015       0.05
-0.5500000000000002       4.9003000000000005       0.05
0.5499999999999999        5.7821                   0.049999999999999996
0.18333333333333338       5.341200000000001        0.05
-0.1833333333333335       4.900300000000001        0.05
-0.5500000000000002       4.4594000000000005       0.05
0.55                      5.341200000000001        0.05000000000000001
0.18333333333333338       4.900300000000002        0.05
-0.5500000000000002       4.0184999999999995       0.049999999999999996
-0.1833333333333335       4.4594                   0.05
0.5499999999999999        4.900300000000001        0.05000000000000001
-0.5500000000000002       3.577600000000001        0.05
-0.1833333333333335       4.0185                   0.05
0.18333333333333324       4.459400000000001        0.05
0.5499999999999999        4.4594000000000005       0.05
-0.5500000000000002       3.1367000000000003       0.05
-0.1833333333333336       3.5776                   0.05
0.18333333333333324       4.0185                   0.05
-0.5500000000000002       2.6958                   0.05
-0.1833333333333335       3.1367                   0.05
0.5499999999999999        4.0185                   0.05
0.18333333333333324       3.577600000000001        0.05
-0.18333333333333343      2.6958                   0.05000000000000001
0.18333333333333318       3.1367000000000007       0.05
0.5499999999999998        3.577600000000001        0.05
0.18333333333333326       2.6958                   0.05000000000000001
0.5499999999999999        3.1367000000000003       0.05000000000000001
0.5499999999999999        2.6958                   0.05
% Elements (triangles)
1          2         3
4          3         2
2          5         4
6          4         5
5          7         6
8          6         7
7          9         8
10         8         9
9          11        10
12         10        11
11         13        12
14         12        13
13         15        14
16         14        15
15         17        16
18         16        17
17         19        18
20         18        19
19         21        20
22         20        21
21         23        22
24         22        23
23         25        24
26         24        25
27         28        29
30         29        28
28         27        31
32         31        27
31         32        3
1          3         32
25         33        26
34         26        33
33         35        34
36         34        35
35         37        36
38         36        37
39         40        41
42         41        40
40         43        42
44         42        43
43         45        44
46         44        45
45         47        46
48         46        47
47         49        48
50         48        49
49         51        50
52         50        51
51         53        52
54         52        53
53         55        54
56         54        55
57         56        58
55         58        56
58         59        57
60         57        59
61         60        62
59         62        60
63         61        64
62         64        61
63         64        65
66         65        64
65         66        67
68         67        66
67         68        69
70         69        68
41         71        39
72         39        71
71         73        72
74         72        73
73         75        74
76         74        75
29         30        77
78         77        30
77         78        79
80         79        78
79         80        81
82         81        80
81         82        83
84         83        82
83         84        85
86         85        84
85         86        87
88         87        86
87         88        89
90         89        88
89         90        91
92         91        90
91         92        93
94         93        92
93         94        95
96         95        94
95         96        97
98         97        96
97         98        37
38         37        98
76         75        99
100        99        75
99         100       101
102        101       100
101        102       103
104        103       102
103        104       105
106        105       104
105        106       107
108        107       106
107        108       109
110        109       108
109        110       111
112        111       110
111        112       113
114        113       112
113        114       115
116        115       114
115        116       117
118        117       116
117        118       119
120        119       118
119        120       70
69         70        120
121        122       123
124        121       125
123        125       121
122        126       127
127        123       122
128        127       126
123        127       129
129        130       123
125        123       130
127        128       131
131        129       127
132        131       128
133        134       135
136        137       133
134        133       137
135        138       139
138        135       134
140        139       138
134        141       138
137        142       134
141        134       142
138        143       140
143        138       141
144        140       143
145        146       147
148        147       146
149        150       145
146        145       150
151        148       152
146        152       148
150        153       146
152        146       153
154        151       155
152        155       151
153        156       152
155        152       156
157        158       159
160        161       162
158        162       161
161        159       158
163        164       160
161        160       164
159        161       165
164        165       161
166        167       163
164        163       167
167        168       164
165        164       168
169        170       171
171        172       173
172        171       170
170        174       172
175        173       172
172        176       175
176        172       174
174        177       176
178        175       176
176        179       178
179        176       177
180        178       179
181        182       183
182        184       185
185        183       182
183        185       186
187        185       184
185        187       188
188        186       185
186        188       189
190        188       187
188        190       191
191        189       188
192        191       190
193        194       195
195        196       197
196        195       194
194        198       196
198        199       200
200        196       198
201        197       196
196        200       201
202        200       199
203        201       200
200        202       203
204        203       202
205        206       207
208        207       206
207        208       209
206        210       208
211        209       208
209        211       212
213        208       210
208        213       211
214        212       211
215        211       213
211        215       214
216        214       215
217        218       219
220        217       221
219        221       217
218        222       223
223        219       218
224        223       222
221        219       225
219        223       226
226        225       219
223        224       227
227        226       223
228        227       224
225        226       229
226        227       230
230        229       226
231        232       228
227        228       232
232        230       227
233        234       231
232        231       234
229        230       235
234        236       232
230        232       236
236        235       230
237        238       233
234        233       238
238        239       234
236        234       239
239        240       236
235        236       240
241        242       237
238        237       242
242        243       238
239        238       243
243        244       239
240        239       244
245        246       241
242        241       246
246        247       242
243        242       247
247        248       243
244        243       248
249        250       245
246        245       250
250        251       246
247        246       251
251        252       247
248        247       252
253        254       255
256        257       253
254        253       257
255        258       259
258        255       254
260        259       258
257        261       254
258        262       260
263        260       262
254        264       258
264        254       261
262        258       264
261        265       264
262        266       263
267        263       266
264        268       262
268        264       265
266        262       268
265        269       268
268        270       266
270        268       269
266        271       267
271        266       270
272        267       271
269        273       270
270        274       271
274        270       273
271        275       272
276        272       275
275        271       274
273        277       274
275        278       276
279        276       278
274        280       275
280        274       277
278        275       280
277        281       280
278        282       279
283        279       282
284        283       285
282        285       283
280        286       278
286        280       281
282        278       286
286        287       282
285        282       287
281        288       286
287        286       288
289        290       291
292        291       290
290        293       292
291        292       294
295        292       293
293        296       295
297        294       292
292        295       297
294        297       298
299        295       296
300        297       295
295        299       300
301        298       297
297        300       301
298        301       302
303        300       299