% Model:              Box_wing_Wings_center_002.mph
% Version:            COMSOL 6.0.0.405
% Date:               Nov 22 2022, 07:52
% Dimension:          3
% Nodes:              112
% Elements:           88
% Expressions:        1
% Description:        Material settings
% Length unit:        m
% Coordinates
-0.5500000000000002       -6.9188                  0.05
-0.5500000000000002       -6.223000000000001       0.05
-0.5500000000000002       -6.9188                  -0.05
-0.5500000000000002       -6.223000000000001       -0.05
-0.55                     -5.047266666666667       0.05
-0.55                     -5.047266666666667       -0.05
-0.5500000000000002       -3.8715333333333337      0.05000000000000001
-0.5500000000000002       -3.8715333333333337      -0.05000000000000001
-0.5500000000000002       -2.6958                  0.05
-0.5500000000000002       -2.6958                  -0.05
-0.5500000000000002       -2                       0.05
-0.5500000000000002       -2                       -0.05
0.5499999999999999        -6.9188                  -0.05
0.5499999999999999        -6.9188                  0.05
0.5499999999999999        -2                       0.05
0.5499999999999999        -2                       -0.05
-0.5500000000000002       2                        0.05
-0.5500000000000002       2.6958                   0.05
-0.5500000000000002       2                        -0.05
-0.5500000000000002       2.6958                   -0.05
-0.5500000000000003       3.8715333333333337       0.05000000000000001
-0.5500000000000003       3.8715333333333337       -0.05000000000000001
-0.5500000000000002       5.047266666666668        0.05000000000000001
-0.5500000000000002       5.047266666666668        -0.05000000000000001
-0.5500000000000002       6.223000000000001        0.05
-0.5500000000000002       6.223000000000001        -0.05
-0.5500000000000002       6.9188                   0.05
-0.5500000000000002       6.9188                   -0.05
0.5499999999999999        2                        -0.05
0.5499999999999999        2                        0.05
0.5499999999999999        6.9188                   0.05
0.5499999999999999        6.9188                   -0.05
0.5499999999999999        -6.223000000000001       0.05
0.5499999999999999        -6.223000000000001       -0.05
0.5499999999999999        -5.047266666666667       0.05
0.5499999999999999        -5.047266666666667       -0.05
0.55                      -3.8715333333333337      0.05000000000000001
0.55                      -3.8715333333333337      -0.05000000000000001
0.5499999999999999        -2.6958                  0.05
0.5499999999999999        -2.6958                  -0.05
0.5499999999999999        2.6958                   0.05
0.5499999999999999        2.6958                   -0.05
0.5499999999999999        3.8715333333333337       0.05
0.5499999999999999        3.8715333333333337       -0.05
0.5500000000000002        5.047266666666668        0.05000000000000002
0.5500000000000002        5.047266666666668        -0.05000000000000002
0.5499999999999999        6.223000000000001        0.05
0.5499999999999999        6.223000000000001        -0.05
0.5499999999999999        -6.9188                  -0.05
-0.5500000000000002       -6.9188                  -0.05
0.5499999999999999        -6.223000000000001       -0.05
-0.5500000000000002       -6.223000000000001       -0.05
0.5499999999999999        -6.9188                  0.05
0.5499999999999999        -6.223000000000001       0.05
-0.5500000000000002       -6.9188                  0.05
-0.5500000000000002       -6.223000000000001       0.05
0.5499999999999999        -2.6958                  -0.05
-0.5500000000000002       -2.6958                  -0.05
0.5499999999999999        -2                       -0.05
-0.5500000000000002       -2                       -0.05
0.5499999999999999        -2.6958                  0.05
0.5499999999999999        -2                       0.05
-0.5500000000000002       -2.6958                  0.05
-0.5500000000000002       -2                       0.05
0.5499999999999999        2                        -0.05
-0.5500000000000002       2                        -0.05
0.5499999999999999        2.6958                   -0.05
-0.5500000000000002       2.6958                   -0.05
0.5499999999999999        2                        0.05
0.5499999999999999        2.6958                   0.05
-0.5500000000000002       2                        0.05
-0.5500000000000002       2.6958                   0.05
0.5499999999999999        6.223000000000001        -0.05
-0.5500000000000002       6.223000000000001        -0.05
0.5499999999999999        6.9188                   -0.05
-0.5500000000000002       6.9188                   -0.05
0.5499999999999999        6.223000000000001        0.05
0.5499999999999999        6.9188                   0.05
-0.5500000000000002       6.223000000000001        0.05
-0.5500000000000002       6.9188                   0.05
0.5499999999999999        -6.223000000000001       -0.05
-0.5500000000000002       -6.223000000000001       -0.05
0.5499999999999999        -5.047266666666667       -0.05
-0.55                     -5.047266666666667       -0.05
0.55                      -3.8715333333333337      -0.05000000000000001
-0.5500000000000002       -3.8715333333333337      -0.05000000000000001
0.5499999999999999        -2.6958                  -0.05
-0.5500000000000002       -2.6958                  -0.05
0.5499999999999999        -6.223000000000001       0.05
0.5499999999999999        -5.047266666666667       0.05
-0.5500000000000002       -6.223000000000001       0.05
-0.55                     -5.047266666666667       0.05
0.55                      -3.8715333333333337      0.05000000000000001
-0.5500000000000002       -3.8715333333333337      0.05000000000000001
0.5499999999999999        -2.6958                  0.05
-0.5500000000000002       -2.6958                  0.05
0.5499999999999999        2.6958                   -0.05
-0.5500000000000002       2.6958                   -0.05
0.5499999999999999        3.8715333333333337       -0.05
-0.5500000000000003       3.8715333333333337       -0.05000000000000001
0.5500000000000002        5.047266666666668        -0.05000000000000002
-0.5500000000000002       5.047266666666668        -0.05000000000000001
0.5499999999999999        6.223000000000001        -0.05
-0.5500000000000002       6.223000000000001        -0.05
0.5499999999999999        2.6958                   0.05
0.5499999999999999        3.8715333333333337       0.05
-0.5500000000000002       2.6958                   0.05
-0.5500000000000003       3.8715333333333337       0.05000000000000001
0.5500000000000002        5.047266666666668        0.05000000000000002
-0.5500000000000002       5.047266666666668        0.05000000000000001
0.5499999999999999        6.223000000000001        0.05
-0.5500000000000002       6.223000000000001        0.05
% Elements (triangles)
1          2         3
4          3         2
2          5         4
6          4         5
5          7         6
8          6         7
7          9         8
10         8         9
9          11        10
12         10        11
13         14        3
1          3         14
11         15        12
16         12        15
17         18        19
20         19        18
18         21        20
22         20        21
21         23        22
24         22        23
23         25        24
26         24        25
25         27        26
28         26        27
29         30        19
17         19        30
27         31        28
32         28        31
14         13        33
34         33        13
33         34        35
36         35        34
35         36        37
38         37        36
37         38        39
40         39        38
39         40        15
16         15        40
30         29        41
42         41        29
41         42        43
44         43        42
43         44        45
46         45        44
45         46        47
48         47        46
47         48        31
32         31        48
49         50        51
52         51        50
53         54        55
56         55        54
57         58        59
60         59        58
61         62        63
64         63        62
65         66        67
68         67        66
69         70        71
72         71        70
73         74        75
76         75        74
77         78        79
80         79        78
81         82        83
84         83        82
83         84        85
86         85        84
85         86        87
88         87        86
89         90        91
92         91        90
90         93        92
94         92        93
93         95        94
96         94        95
97         98        99
100        99        98
99         100       101
102        101       100
101        102       103
104        103       102
105        106       107
108        107       106
106        109       108
110        108       109
109        111       110
112        110       111
% Data (material.boundary)
2
2
2
2
2
2
2
2
2
2
2
2
2
2
2
2
2
2
2
2
2
2
2
2
2
2
2
2
2
2
2
2
2
2
2
2
2
2
2
2
2
2
2
2
2
2
2
2
0
0
0
0
0
0
0
0
0
0
0
0
0
0
0
0
0
0
0
0
0
0
0
0
0
0
0
0
0
0
0
0
1
1
1
1
1
1
1
1
1
1
1
1
1
1
1
1
1
1
1
1
1
1
1
1
1
1
1
1
1
1
1
1
