% Model:              Box_wing_Wings.mph
% Version:            COMSOL 6.0.0.405
% Date:               Nov 3 2022, 18:55
% Dimension:          3
% Nodes:              252
% Elements:           256
% Expressions:        1
% Description:        Material settings
% Length unit:        m
% Coordinates
-0.49999999999999983      -1.295                   -0.049999999999999906
-0.4999999999999998       -1.6775000000000002      -0.04999999999999986
-0.49999999999999983      -1.295                   0.05000000000000009
-0.4999999999999998       -1.6775                  0.05000000000000014
-0.4999999999999997       -2.06                    -0.04999999999999981
-0.4999999999999997       -2.06                    0.05000000000000019
-0.49999999999999967      -2.7066666666666666      -0.04999999999999974
-0.4999999999999997       -2.7066666666666666      0.050000000000000266
-0.49999999999999956      -3.3533333333333326      -0.04999999999999965
-0.49999999999999956      -3.353333333333333       0.05000000000000035
-0.49999999999999933      -3.9999999999999982      -0.04999999999999956
-0.4999999999999995       -3.999999999999999       0.05000000000000043
-0.4999999999999995       -4.6466666666666665      -0.0499999999999995
-0.49999999999999944      -4.646666666666666       0.050000000000000516
-0.4999999999999993       -5.293333333333331       -0.0499999999999994
-0.49999999999999933      -5.293333333333333       0.05000000000000059
-0.4999999999999992       -5.939999999999999       -0.04999999999999934
-0.4999999999999992       -5.939999999999999       0.05000000000000066
-0.4999999999999992       -6.3225                  -0.04999999999999929
-0.4999999999999992       -6.3225                  0.05000000000000071
-0.49999999999999917      -6.705                   -0.04999999999999924
-0.49999999999999917      -6.705                   0.05000000000000076
7.077671781985373E-16     -6.705                   -0.04999999999999917
7.077671781985373E-16     -6.705                   0.05000000000000083
0.5000000000000008        -6.705                   -0.04999999999999912
0.5000000000000008        -6.705                   0.05000000000000088
1.2836953722228372E-16    -1.295                   0.050000000000000155
1.2836953722228372E-16    -1.295                   -0.04999999999999985
0.5000000000000002        -1.295                   0.05000000000000022
0.5000000000000002        -1.295                   -0.04999999999999978
-0.5000000000000008       6.705                    -0.05000000000000088
-0.5000000000000008       6.3225                   -0.050000000000000835
-0.5000000000000008       6.705                    0.04999999999999912
-0.5000000000000008       6.3225                   0.04999999999999917
-0.5000000000000007       5.939999999999999        -0.05000000000000078
-0.5000000000000007       5.939999999999999        0.04999999999999922
-0.5000000000000007       5.293333333333332        -0.0500000000000007
-0.5000000000000007       5.293333333333333        0.049999999999999295
-0.5000000000000007       4.6466666666666665       -0.05000000000000063
-0.5000000000000007       4.6466666666666665       0.04999999999999938
-0.5000000000000003       3.9999999999999987       -0.05000000000000053
-0.5000000000000004       4                        0.04999999999999945
-0.5000000000000003       3.3533333333333326       -0.05000000000000046
-0.5000000000000004       3.3533333333333344       0.04999999999999954
-0.5000000000000003       2.7066666666666666       -0.05000000000000038
-0.5000000000000002       2.7066666666666666       0.049999999999999614
-0.5000000000000002       2.06                     -0.050000000000000315
-0.5000000000000002       2.060000000000001        0.049999999999999684
-0.5000000000000001       1.6774999999999998       -0.05000000000000025
-0.5000000000000002       1.295                    -0.05000000000000022
-0.5000000000000002       1.6775000000000004       0.04999999999999973
-0.5000000000000002       1.295                    0.04999999999999978
0.49999999999999983       1.295                    -0.05000000000000009
0.49999999999999983       1.295                    0.049999999999999906
-1.2836953722228372E-16   1.295                    -0.050000000000000155
-1.2836953722228372E-16   1.295                    0.04999999999999985
0.49999999999999917       6.705                    -0.05000000000000076
-7.077671781985373E-16    6.705                    -0.05000000000000083
0.49999999999999917       6.705                    0.04999999999999924
-7.077671781985373E-16    6.705                    0.04999999999999917
0.5000000000000002        -1.6775000000000004      -0.04999999999999973
0.5000000000000001        -1.6774999999999998      0.05000000000000025
0.5000000000000002        -2.060000000000001       -0.049999999999999684
0.5000000000000002        -2.06                    0.050000000000000315
0.5000000000000002        -2.7066666666666666      -0.049999999999999614
0.5000000000000003        -2.7066666666666666      0.05000000000000038
0.5000000000000004        -3.3533333333333344      -0.04999999999999954
0.5000000000000003        -3.3533333333333326      0.05000000000000046
0.5000000000000004        -4                       -0.04999999999999945
0.5000000000000003        -3.9999999999999987      0.05000000000000053
0.5000000000000007        -4.6466666666666665      -0.04999999999999938
0.5000000000000007        -4.6466666666666665      0.05000000000000063
0.5000000000000007        -5.293333333333333       -0.049999999999999295
0.5000000000000007        -5.293333333333332       0.0500000000000007
0.5000000000000007        -5.939999999999999       -0.04999999999999922
0.5000000000000007        -5.939999999999999       0.05000000000000078
0.5000000000000008        -6.3225                  -0.04999999999999917
0.5000000000000008        -6.3225                  0.050000000000000835
0.4999999999999992        6.3225                   -0.05000000000000071
0.4999999999999992        6.3225                   0.04999999999999929
0.4999999999999992        5.939999999999999        -0.05000000000000066
0.4999999999999992        5.939999999999999        0.04999999999999934
0.4999999999999993        5.293333333333331        -0.050000000000000586
0.4999999999999993        5.293333333333331        0.0499999999999994
0.4999999999999995        4.6466666666666665       -0.050000000000000516
0.4999999999999995        4.6466666666666665       0.0499999999999995
0.49999999999999933       3.9999999999999982       -0.05000000000000042
0.49999999999999933       3.9999999999999982       0.04999999999999956
0.49999999999999956       3.3533333333333326       -0.050000000000000336
0.49999999999999956       3.3533333333333326       0.04999999999999965
0.49999999999999967       2.7066666666666666       -0.050000000000000266
0.49999999999999967       2.7066666666666666       0.04999999999999974
0.4999999999999997        2.06                     -0.05000000000000019
0.4999999999999998        1.6775000000000002       -0.05000000000000014
0.4999999999999998        1.6775000000000002       0.04999999999999986
0.4999999999999997        2.06                     0.04999999999999981
-0.4999999999999992       -5.939999999999999       -0.04999999999999934
6.262351748276274E-16     -5.939999999999997       -0.04999999999999926
-0.4999999999999992       -6.3225                  -0.04999999999999929
6.677856164233345E-16     -6.322500000000001       -0.049999999999999226
0.5000000000000007        -5.939999999999999       -0.04999999999999922
-0.49999999999999917      -6.705                   -0.04999999999999924
0.5000000000000008        -6.3225                  -0.04999999999999917
7.077671781985373E-16     -6.705                   -0.04999999999999917
0.5000000000000008        -6.705                   -0.04999999999999912
-0.4999999999999992       -5.939999999999999       0.05000000000000066
-0.4999999999999992       -6.3225                  0.05000000000000071
8.656270145124267E-16     -5.939999999999997       0.05000000000000072
8.539006304349053E-16     -6.322500000000001       0.05000000000000077
0.5000000000000007        -5.939999999999999       0.05000000000000078
-0.49999999999999917      -6.705                   0.05000000000000076
0.5000000000000008        -6.3225                  0.050000000000000835
7.077671781985373E-16     -6.705                   0.05000000000000083
0.5000000000000008        -6.705                   0.05000000000000088
-0.49999999999999983      -1.295                   -0.049999999999999906
1.2836953722228372E-16    -1.295                   -0.04999999999999985
-0.4999999999999998       -1.6775000000000002      -0.04999999999999986
2.1804190430117573E-16    -1.6774999999999993      -0.0499999999999998
0.5000000000000002        -1.295                   -0.04999999999999978
-0.4999999999999997       -2.06                    -0.04999999999999981
0.5000000000000002        -1.6775000000000004      -0.04999999999999973
3.139849491518021E-16     -2.0600000000000005      -0.04999999999999975
0.5000000000000002        -2.060000000000001       -0.049999999999999684
-0.49999999999999983      -1.295                   0.05000000000000009
-0.4999999999999998       -1.6775                  0.05000000000000014
1.2836953722228372E-16    -1.295                   0.050000000000000155
1.0639510310827962E-16    -1.6774999999999993      0.0500000000000002
0.5000000000000002        -1.295                   0.05000000000000022
0.5000000000000001        -1.6774999999999998      0.05000000000000025
-0.4999999999999997       -2.06                    0.05000000000000019
1.7694179454963432E-16    -2.06                    0.05000000000000025
0.5000000000000002        -2.06                    0.050000000000000315
-3.139849491518021E-16    2.0599999999999996       -0.05000000000000025
0.4999999999999997        2.06                     -0.05000000000000019
-1.0639510310827961E-16   1.6774999999999993       -0.0500000000000002
0.4999999999999998        1.6775000000000002       -0.05000000000000014
0.49999999999999983       1.295                    -0.05000000000000009
-1.2836953722228372E-16   1.295                    -0.050000000000000155
-0.5000000000000002       2.06                     -0.050000000000000315
-0.5000000000000001       1.6774999999999998       -0.05000000000000025
-0.5000000000000002       1.295                    -0.05000000000000022
0.49999999999999983       1.295                    0.049999999999999906
0.4999999999999998        1.6775000000000002       0.04999999999999986
-1.2836953722228372E-16   1.295                    0.04999999999999985
-2.1804190430117573E-16   1.6774999999999993       0.0499999999999998
0.4999999999999997        2.06                     0.04999999999999981
-1.7694179454963432E-16   2.0600000000000005       0.049999999999999746
-0.5000000000000002       2.060000000000001        0.049999999999999684
-0.5000000000000002       1.6775000000000004       0.04999999999999973
-0.5000000000000002       1.295                    0.04999999999999978
-0.5000000000000008       6.705                    -0.05000000000000088
-7.077671781985373E-16    6.705                    -0.05000000000000083
-0.5000000000000008       6.3225                   -0.050000000000000835
-7.347959043531187E-16    6.322500000000001        -0.05000000000000077
0.49999999999999917       6.705                    -0.05000000000000076
0.4999999999999992        6.3225                   -0.05000000000000071
-0.5000000000000007       5.939999999999999        -0.05000000000000078
-6.262351748276274E-16    5.939999999999997        -0.050000000000000724
0.4999999999999992        5.939999999999999        -0.05000000000000066
0.4999999999999992        6.3225                   0.04999999999999929
0.49999999999999917       6.705                    0.04999999999999924
-7.868903425051212E-16    6.3225                   0.049999999999999226
-7.077671781985373E-16    6.705                    0.04999999999999917
-0.5000000000000008       6.705                    0.04999999999999912
-0.5000000000000008       6.3225                   0.04999999999999917
0.4999999999999992        5.939999999999999        0.04999999999999934
-8.656270145124267E-16    5.939999999999997        0.04999999999999926
-0.5000000000000007       5.939999999999999        0.04999999999999922
-0.4999999999999997       -2.06                    -0.04999999999999981
3.139849491518021E-16     -2.0600000000000005      -0.04999999999999975
-0.49999999999999967      -2.7066666666666666      -0.04999999999999974
3.4407847071342405E-16    -2.7066666666666657      -0.04999999999999967
0.5000000000000002        -2.060000000000001       -0.049999999999999684
-0.49999999999999956      -3.3533333333333326      -0.04999999999999965
0.5000000000000002        -2.7066666666666666      -0.049999999999999614
4.232722970582864E-16     -3.3533333333333335      -0.04999999999999959
-0.49999999999999933      -3.9999999999999982      -0.04999999999999956
0.5000000000000004        -3.3533333333333344      -0.04999999999999954
5.620184864440417E-16     -3.9999999999999982      -0.04999999999999952
-0.4999999999999995       -4.6466666666666665      -0.0499999999999995
0.5000000000000004        -4                       -0.04999999999999945
5.816599497480105E-16     -4.646666666666665       -0.049999999999999434
-0.4999999999999993       -5.293333333333331       -0.0499999999999994
0.5000000000000007        -4.6466666666666665      -0.04999999999999938
5.417490500110857E-16     -5.29333333333333        -0.04999999999999935
-0.4999999999999992       -5.939999999999999       -0.04999999999999934
0.5000000000000007        -5.293333333333333       -0.049999999999999295
6.262351748276274E-16     -5.939999999999997       -0.04999999999999926
0.5000000000000007        -5.939999999999999       -0.04999999999999922
-0.4999999999999997       -2.06                    0.05000000000000019
-0.4999999999999997       -2.7066666666666666      0.050000000000000266
1.7694179454963432E-16    -2.06                    0.05000000000000025
2.324316695205281E-16     -2.706666666666666       0.05000000000000033
0.5000000000000002        -2.06                    0.050000000000000315
0.5000000000000003        -2.7066666666666666      0.05000000000000038
-0.49999999999999956      -3.353333333333333       0.05000000000000035
4.3073022194717694E-16    -3.353333333333332       0.05000000000000041
0.5000000000000003        -3.3533333333333326      0.05000000000000046
-0.4999999999999995       -3.999999999999999       0.05000000000000043
5.099240482920389E-16     -3.9999999999999964      0.05000000000000049
0.5000000000000003        -3.9999999999999987      0.05000000000000053
-0.49999999999999944      -4.646666666666666       0.050000000000000516
7.677749637595812E-16     -4.646666666666664       0.050000000000000565
-0.49999999999999933      -5.293333333333333       0.05000000000000059
0.5000000000000007        -4.6466666666666665      0.05000000000000063
7.8741642706355E-16       -5.29333333333333        0.05000000000000065
-0.4999999999999992       -5.939999999999999       0.05000000000000066
0.5000000000000007        -5.293333333333332       0.0500000000000007
8.656270145124267E-16     -5.939999999999997       0.05000000000000072
0.5000000000000007        -5.939999999999999       0.05000000000000078
-0.5000000000000007       5.939999999999999        -0.05000000000000078
-6.262351748276274E-16    5.939999999999997        -0.050000000000000724
-0.5000000000000007       5.293333333333332        -0.0500000000000007
-4.896546118590831E-16    5.29333333333333         -0.05000000000000065
0.4999999999999992        5.939999999999999        -0.05000000000000066
0.4999999999999993        5.293333333333331        -0.050000000000000586
-0.5000000000000007       4.6466666666666665       -0.05000000000000063
-5.295655115960078E-16    4.646666666666666        -0.050000000000000565
0.4999999999999995        4.6466666666666665       -0.050000000000000516
-0.5000000000000003       3.9999999999999987       -0.05000000000000053
-2.7171459612846527E-16   3.9999999999999964       -0.05000000000000049
0.49999999999999933       3.9999999999999982       -0.05000000000000042
-0.5000000000000003       3.3533333333333326       -0.05000000000000046
-4.3073022194717684E-16   3.3533333333333313       -0.05000000000000041
0.49999999999999956       3.3533333333333326       -0.050000000000000336
-0.5000000000000003       2.7066666666666666       -0.05000000000000038
0.49999999999999967       2.7066666666666666       -0.050000000000000266
-3.5153639560231487E-16   2.706666666666666        -0.05000000000000033
-0.5000000000000002       2.06                     -0.050000000000000315
-3.139849491518021E-16    2.0599999999999996       -0.05000000000000025
0.4999999999999997        2.06                     -0.05000000000000019
0.4999999999999993        5.293333333333331        0.0499999999999994
0.4999999999999992        5.939999999999999        0.04999999999999934
-8.99063228256446E-16     5.29333333333333         0.04999999999999935
-8.656270145124267E-16    5.939999999999997        0.04999999999999926
-0.5000000000000007       5.939999999999999        0.04999999999999922
-0.5000000000000007       5.293333333333333        0.049999999999999295
0.4999999999999995        4.6466666666666665       0.0499999999999995
-7.007646758297973E-16    4.646666666666666        0.049999999999999434
-0.5000000000000007       4.6466666666666665       0.04999999999999938
0.49999999999999933       3.9999999999999982       0.04999999999999956
-6.215708494849352E-16    3.999999999999999        0.04999999999999952
-0.5000000000000004       4                        0.04999999999999945
0.49999999999999956       3.3533333333333326       0.04999999999999965
-4.232722970582864E-16    3.3533333333333335       0.04999999999999959
-0.5000000000000004       3.3533333333333344       0.04999999999999954
0.49999999999999967       2.7066666666666666       0.04999999999999974
-2.2497374463163736E-16   2.7066666666666666       0.04999999999999967
-0.5000000000000002       2.7066666666666666       0.049999999999999614
0.4999999999999997        2.06                     0.04999999999999981
-1.7694179454963432E-16   2.0600000000000005       0.049999999999999746
-0.5000000000000002       2.060000000000001        0.049999999999999684
% Elements (triangles)
1          2         3
4          3         2
2          5         4
6          4         5
5          7         6
8          6         7
7          9         8
10         8         9
9          11        10
12         10        11
11         13        12
14         12        13
13         15        14
16         14        15
15         17        16
18         16        17
17         19        18
20         18        19
19         21        20
22         20        21
23         24        21
22         21        24
25         26        23
24         23        26
3          27        1
28         1         27
27         29        28
30         28        29
31         32        33
34         33        32
32         35        34
36         34        35
35         37        36
38         36        37
37         39        38
40         38        39
39         41        40
42         40        41
41         43        42
44         42        43
43         45        44
46         44        45
45         47        46
48         46        47
47         49        48
49         50        51
51         48        49
52         51        50
53         54        55
55         56        50
56         55        54
52         50        56
57         58        59
58         31        60
60         59        58
33         60        31
30         29        61
62         61        29
61         62        63
64         63        62
63         64        65
66         65        64
65         66        67
68         67        66
67         68        69
70         69        68
69         70        71
72         71        70
71         72        73
74         73        72
73         74        75
76         75        74
75         76        77
78         77        76
77         78        25
26         25        78
57         59        79
80         79        59
79         80        81
82         81        80
81         82        83
84         83        82
83         84        85
86         85        84
85         86        87
88         87        86
87         88        89
90         89        88
89         90        91
92         91        90
91         92        93
94         95        53
54         53        95
93         96        94
95         94        96
96         93        92
97         98        99
100        99        98
98         101       100
99         100       102
103        100       101
104        102       100
100        103       104
105        104       103
106        107       108
109        108       107
108        109       110
107        111       109
112        110       109
113        109       111
109        113       112
114        112       113
115        116       117
118        117       116
116        119       118
117        118       120
121        118       119
122        120       118
118        121       122
123        122       121
124        125       126
127        126       125
126        127       128
129        128       127
125        130       127
131        127       130
127        131       129
132        129       131
133        134       135
136        135       134
137        138       136
135        136       138
139        133       140
135        140       133
140        135       141
138        141       135
142        143       144
145        144       143
143        146       145
147        145       146
148        149       147
145        147       149
144        145       150
149        150       145
151        152       153
154        153       152
152        155       154
156        154       155
153        154       157
158        157       154
154        156       158
159        158       156
160        161       162
163        162       161
164        165       163
162        163       165
166        160       167
162        167       160
167        162       168
165        168       162
169        170       171
172        171       170
170        173       172
171        172       174
175        172       173
176        174       172
172        175       176
174        176       177
178        176       175
179        177       176
176        178       179
177        179       180
181        179       178
182        180       179
179        181       182
180        182       183
184        182       181
185        183       182
182        184       185
183        185       186
187        185       184
188        186       185
185        187       188
189        188       187
190        191       192
193        192       191
192        193       194
195        194       193
191        196       193
197        193       196
193        197       195
198        195       197
196        199       197
200        197       199
197        200       198
201        198       200
199        202       200
203        200       202
200        203       201
202        204       203
205        201       203
206        203       204
203        206       205
204        207       206
208        205       206
209        206       207
206        209       208
210        208       209
211        212       213
214        213       212
212        215       214
216        214       215
213        214       217
218        217       214
214        216       218
219        218       216
217        218       220
221        220       218
218        219       221
222        221       219
220        221       223
224        223       221
221        222       224
225        224       222
223        224       226
227        228       225
228        226       224
224        225       228
226        228       229
230        229       228
228        227       230
231        230       227
232        233       234
235        234       233
236        237       235
234        235       237
238        232       239
234        239       232
237        240       234
239        234       240
241        238       242
239        242       238
240        243       239
242        239       243
244        241       245
242        245       241
243        246       242
245        242       246
247        244       248
245        248       244
246        249       245
248        245       249
250        247       251
248        251       247
251        248       252
249        252       248
% Data (material.boundary)
2
2
2
2
2
2
2
2
2
2
2
2
2
2
2
2
2
2
2
2
2
2
2
2
2
2
2
2
2
2
2
2
2
2
2
2
2
2
2
2
2
2
2
2
2
2
2
2
2
2
2
2
2
2
2
2
2
2
2
2
2
2
2
2
2
2
2
2
2
2
2
2
2
2
2
2
2
2
2
2
2
2
2
2
2
2
2
2
2
2
2
2
2
2
2
2
0
0
0
0
0
0
0
0
0
0
0
0
0
0
0
0
0
0
0
0
0
0
0
0
0
0
0
0
0
0
0
0
0
0
0
0
0
0
0
0
0
0
0
0
0
0
0
0
0
0
0
0
0
0
0
0
0
0
0
0
0
0
0
0
0
0
0
0
0
0
0
0
1
1
1
1
1
1
1
1
1
1
1
1
1
1
1
1
1
1
1
1
1
1
1
1
1
1
1
1
1
1
1
1
1
1
1
1
1
1
1
1
1
1
1
1
1
1
1
1
1
1
1
1
1
1
1
1
1
1
1
1
1
1
1
1
1
1
1
1
1
1
1
1
1
1
1
1
1
1
1
1
1
1
1
1
