% Model:              Box_wing_001_surf_surf_004.mph
% Version:            COMSOL 6.0.0.405
% Date:               Oct 12 2022, 17:27
% Dimension:          3
% Nodes:              610
% Elements:           828
% Expressions:        1
% Description:        Material settings
% Length unit:        m
% Coordinates
-1.265                    -0.6                     0.55
-1.265                    -0.35999999999999993     0.55
-1.265                    -0.6                     0.32999999999999996
-1.265                    -0.11999999999999991     0.55
-1.265                    -0.35999999999999993     0.32999999999999996
-1.265                    -0.6                     0.10999999999999993
-1.265                    -0.35999999999999993     0.11000000000000007
-1.265                    -0.6                     -0.11000000000000008
-1.265                    0.12000000000000002      0.55
-1.265                    -0.11999999999999991     0.32999999999999996
-1.265                    0.12000000000000002      0.33
-1.265                    0.36                     0.55
-1.265                    -0.36                    -0.11000000000000007
-1.265                    -0.6                     -0.3300000000000002
-1.265                    -0.11999999999999991     0.10999999999999995
-1.265                    -0.36                    -0.33000000000000007
-1.265                    -0.6                     -0.5500000000000002
-1.265                    0.11999999999999991      0.10999999999999995
-1.265                    0.36000000000000004      0.33
-1.265                    0.6                      0.55
-1.265                    -0.36                    -0.5500000000000002
-1.265                    -0.12000000000000002     -0.10999999999999995
-1.265                    -0.12000000000000002     -0.33000000000000035
-1.265                    0.11999999999999968      -0.10999999999999995
-1.265                    0.35999999999999993      0.11000000000000001
-1.265                    0.6                      0.33000000000000007
-1.265                    -0.12000000000000002     -0.5500000000000002
-1.265                    0.11999999999999991      -0.33000000000000007
-1.265                    0.35999999999999993      -0.11000000000000007
-1.265                    0.6                      0.10999999999999997
-1.265                    0.11999999999999991      -0.5500000000000002
-1.265                    0.35999999999999993      -0.32999999999999996
-1.265                    0.6                      -0.11000000000000006
-1.265                    0.35999999999999993      -0.5500000000000002
-1.265                    0.6                      -0.33000000000000007
-1.265                    0.6                      -0.5500000000000002
0.8650000000000003        0.36                     -0.5499999999999998
0.6643620000000005        0.36                     -0.55
0.8650000000000003        0.6                      -0.55
0.6890900000000003        0.6                      -0.55
0.8650000000000002        0.12                     -0.5499999999999998
0.639634                  0.12000000000000002      -0.55
0.5131800000000002        0.6                      -0.55
0.8650000000000003        -0.36                    -0.5499999999999998
0.5901780000000004        -0.36000000000000004     -0.55
0.8650000000000002        -0.12000000000000001     -0.5499999999999998
0.8650000000000003        -0.6                     -0.55
0.5654500000000003        -0.6                     -0.55
0.6149060000000002        -0.12000000000000013     -0.55
0.4783980000000003        0.36                     -0.55
0.4436160000000002        0.11999999999999991      -0.55
0.25659000000000015       0.6                      -0.55
0.22789000000000023       0.36                     -0.5500000000000002
0.37405200000000033       -0.35999999999999993     -0.55
0.3392700000000002        -0.6                     -0.55
0.4088339999999999        -0.12000000000000013     -0.55
0.11309000000000016       -0.6                     -0.55
0.14179000000000042       -0.35999999999999993     -0.5500000000000002
0.19919000000000023       0.12000000000000002      -0.5500000000000002
0.1704900000000003        -0.12000000000000013     -0.5500000000000002
1.1622647289044608E-16    0.5999999999999999       -0.55
-0.022617999999999524     0.35999999999999993      -0.5500000000000002
-0.045236000000000005     0.12000000000000002      -0.5500000000000002
-0.5654499999999998       -0.6                     -0.5500000000000002
-0.8649999999999998       -0.6                     -0.5500000000000002
-0.5549960000000002       -0.35999999999999993     -0.5500000000000002
-0.11308999999999977      -0.5999999999999999      -0.55
-0.09047200000000001      -0.35999999999999993     -0.5500000000000002
-0.33926999999999974      -0.5999999999999999      -0.55
-0.3227340000000004       -0.36000000000000004     -0.5500000000000002
-0.06785400000000025      -0.12000000000000002     -0.5500000000000002
-0.27312600000000015      0.35999999999999993      -0.5500000000000002
-0.25658999999999993      0.6000000000000001       -0.5500000000000002
-0.8649999999999998       -0.36                    -0.5500000000000002
-0.28966200000000003      0.12000000000000002      -0.5500000000000002
-0.5445419999999997       -0.12000000000000002     -0.5500000000000002
-0.30619799999999986      -0.12000000000000013     -0.5500000000000002
-0.8649999999999998       -0.12                    -0.5500000000000002
-0.534088                 0.12000000000000002      -0.5500000000000002
-0.5236339999999996       0.35999999999999993      -0.5500000000000002
-0.5131799999999999       0.6                      -0.5500000000000002
-0.8649999999999998       0.12000000000000001      -0.5500000000000002
-0.8649999999999999       0.6                      -0.5500000000000002
-0.8649999999999998       0.36                     -0.5500000000000002
0.5654500000000002        -0.5999999999999999      0.32999999999999996
0.5654500000000003        -0.6                     0.5500000000000002
0.4695340000000001        -0.6                     0.32999999999999996
0.5021000000000003        -0.6000000000000001      0.5500000000000003
0.43875000000000025       -0.6                     0.5500000000000002
0.5654500000000003        -0.6                     0.10999999999999995
0.4369680000000009        -0.6                     0.11000000000000001
0.3736180000000003        -0.6                     0.32999999999999996
2.3592239273284576E-16    -0.5999999999999999      0.5500000000000002
0.5654500000000003        -0.5999999999999999      -0.11000000000000017
0.40440200000000026       -0.6                     -0.10999999999999995
0.5654500000000003        -0.5999999999999999      -0.33000000000000007
0.37183600000000006       -0.6                     -0.33000000000000007
0.3084860000000001        -0.6                     0.10999999999999995
-0.43874999999999975      -0.6                     0.55
-0.41885399999999984      -0.6                     0.33000000000000007
-0.5654499999999998       -0.6                     0.55
-0.022617999999999985     -0.6                     0.33000000000000007
-0.5654499999999998       -0.5999999999999999      0.33000000000000007
0.24335399999999996       -0.6                     -0.10999999999999995
0.17822200000000002       -0.6                     -0.33000000000000007
-0.04523599999999926      -0.6                     0.11000000000000025
-0.0904719999999997       -0.6                     -0.3299999999999996
-0.39895799999999987      -0.6                     0.11000000000000021
-0.5654499999999998       -0.5999999999999999      0.11000000000000017
-0.35916599999999993      -0.6                     -0.32999999999999974
-0.06785399999999972      -0.6                     -0.10999999999999983
-0.379062                 -0.6                     -0.10999999999999995
-0.5654499999999998       -0.6                     -0.10999999999999995
-0.5654499999999998       -0.5999999999999999      -0.32999999999999996
0.5131799999999999        0.5999999999999999       0.33000000000000007
0.402318                  0.6                      0.33000000000000035
0.5131800000000002        0.6                      0.5500000000000002
0.43875000000000003       0.6                      0.5500000000000002
0.51318                   0.5999999999999999       0.11000000000000017
0.3658859999999999        0.6                      0.11000000000000021
0.5131800000000001        0.6                      -0.10999999999999995
0.51318                   0.5999999999999999       -0.32999999999999996
0.32945400000000014       0.6                      -0.10999999999999995
0.293022                  0.6                      -0.32999999999999985
3.469446951953614E-17     0.6                      0.5500000000000002
1.8432499300109E-16       0.6                      0.32999999999999996
-0.43875000000000003      0.6                      0.55
2.247383373729527E-16     0.6                      -0.32999999999999996
-4.041334437186266E-17    0.6                      0.10999999999999995
2.1126722258233177E-16    0.6                      -0.11000000000000007
-0.402318                 0.6                      0.32999999999999996
-0.5131799999999999       0.6                      0.55
-0.5131799999999997       0.5999999999999999       0.32999999999999996
-0.3658860000000002       0.6                      0.10999999999999995
-0.2930220000000001       0.6                      -0.33
-0.3294539999999999       0.6                      -0.11000000000000014
-0.5131799999999997       0.6                      0.10999999999999995
-0.5131799999999996       0.5999999999999999       -0.11000000000000017
-0.5131799999999997       0.5999999999999999       -0.33000000000000007
0.43875000000000014       -0.36                    0.55
0.43875000000000014       0.36                     0.5500000000000002
2.382094521635736E-16     0.35999999999999993      0.5500000000000002
0.43875000000000014       -0.12                    0.55
2.382094521635736E-16     -0.3599999999999999      0.5500000000000002
-0.4387499999999998       -0.36                    0.5500000000000002
0.43875000000000014       0.12000000000000001      0.55
0                         -0.11999999999999991     0.5500000000000002
2.382094521635736E-16     0.12000000000000013      0.5500000000000002
-0.4387499999999998       0.12                     0.55
-0.4387499999999998       0.36                     0.55
-0.4387499999999998       -0.12000000000000001     0.55
1.2650000000000001        -0.2                     0.5500000000000002
1.2650000000000001        -0.19999999999999998     0.3300000000000001
1.2650000000000001        -1.1275702593849246E-17  0.5500000000000002
1.2650000000000001        0                        0.33000000000000007
1.2650000000000001        0.2                      0.5500000000000002
1.2650000000000001        -0.2                     0.11000000000000021
1.2650000000000001        0.2                      0.3300000000000002
1.2650000000000001        0.2                      -0.55
1.2650000000000001        0.2                      -0.3299999999999998
1.2650000000000001        1.1275702593849246E-17   -0.55
1.2650000000000001        0.2                      -0.1099999999999998
1.2650000000000001        0                        -0.32999999999999985
1.2650000000000001        -0.2                     -0.55
1.2650000000000001        -0.20000000000000004     -0.3299999999999999
1.2650000000000001        0.2                      0.1100000000000002
1.2650000000000001        0                        -0.10999999999999983
1.2650000000000001        -0.2                     -0.1099999999999998
1.2650000000000001        0                        0.11000000000000021
-0.5654499999999998       -0.6                     0.55
-0.7041899999999998       -0.6                     0.55
-0.5654499999999998       -0.5999999999999999      0.33000000000000007
-1.1204099999999997       -0.6                     0.55
-1.1173279999999997       -0.6                     0.32999999999999996
-0.9816699999999996       -0.6                     0.5499999999999999
-1.2591499999999998       -0.6                     0.55
-1.2443199999999996       -0.6                     0.32999999999999996
-1.265                    -0.6                     0.32999999999999996
-1.265                    -0.6                     0.55
-1.2294899999999997       -0.6                     0.10999999999999988
-1.265                    -0.6                     0.10999999999999993
-1.2146599999999999       -0.6                     -0.10999999999999995
-1.19983                  -0.6                     -0.32999999999999996
-1.1080819999999996       -0.6                     -0.33000000000000007
-1.1049999999999995       -0.5999999999999998      -0.5500000000000002
-1.1849999999999998       -0.6                     -0.5500000000000002
-0.7363519999999997       -0.6                     0.32999999999999996
-0.8429299999999997       -0.6                     0.55
-0.5654499999999998       -0.5999999999999999      0.11000000000000017
-0.8633439999999997       -0.6                     0.33000000000000007
-0.9903359999999998       -0.6                     0.32999999999999985
-0.7685139999999997       -0.6                     0.11000000000000021
-0.5654499999999998       -0.6                     -0.10999999999999995
-1.016334                 -0.6                     -0.33000000000000007
-0.8649999999999998       -0.6                     -0.5500000000000002
-0.5654499999999998       -0.6                     -0.5500000000000002
-0.8328379999999997       -0.6                     -0.32999999999999996
-1.0250000000000001       -0.6                     -0.5500000000000003
-0.9245859999999999       -0.6                     -0.33000000000000007
-0.9449999999999997       -0.6                     -0.5500000000000002
-0.5654499999999998       -0.5999999999999999      -0.32999999999999996
-0.8006759999999997       -0.6                     -0.10999999999999995
-1.1142459999999998       -0.6                     0.11000000000000007
-1.1111639999999996       -0.6                     -0.11000000000000007
-0.9041719999999998       -0.6                     -0.10999999999999995
-1.007668                 -0.6                     -0.10999999999999995
-0.9990020000000001       -0.6                     0.10999999999999995
-0.8837579999999997       -0.6                     0.11000000000000014
-1.265                    -0.6                     -0.11000000000000008
-1.265                    -0.6                     -0.3300000000000002
-1.265                    -0.6                     -0.5500000000000002
-1.1850000000000005       -0.3600000000000003      -0.5500000000000002
-1.1049999999999995       -0.3599999999999997      -0.5500000000000002
-1.025                    -0.35999999999999993     -0.5500000000000002
-0.8649999999999998       -0.36                    -0.5500000000000002
-0.9449999999999997       -0.35999999999999993     -0.5500000000000002
-0.8649999999999998       -0.12                    -0.5500000000000002
-0.9449999999999997       -0.12000000000000002     -0.5500000000000002
-1.0250000000000008       -0.12000000000000013     -0.5500000000000002
-1.1049999999999995       -0.12000000000000002     -0.5500000000000002
-1.265                    -0.36                    -0.5500000000000002
-1.185                    -0.12000000000000002     -0.5500000000000002
-0.8649999999999998       0.12000000000000001      -0.5500000000000002
-0.9449999999999997       0.12000000000000002      -0.5500000000000002
-1.0250000000000008       0.11999999999999991      -0.5500000000000002
-0.8649999999999998       0.36                     -0.5500000000000002
-0.9449999999999998       0.6                      -0.5500000000000002
-0.8649999999999999       0.6                      -0.5500000000000002
-0.9449999999999997       0.36                     -0.5500000000000002
-1.0250000000000008       0.35999999999999993      -0.5500000000000002
-1.105                    0.12000000000000006      -0.5500000000000002
-1.265                    -0.12000000000000002     -0.5500000000000002
-1.1850000000000005       0.11999999999999983      -0.5500000000000002
-1.105                    0.36000000000000004      -0.5500000000000002
-1.025                    0.6                      -0.5500000000000002
-1.265                    0.11999999999999991      -0.5500000000000002
-1.185                    0.35999999999999993      -0.5500000000000002
-1.105                    0.6                      -0.5500000000000002
-1.265                    0.35999999999999993      -0.5500000000000002
-1.185                    0.6                      -0.5500000000000002
-1.265                    0.6                      -0.5500000000000002
-0.5131799999999999       0.6                      0.55
-0.5131799999999997       0.5999999999999999       0.32999999999999996
-0.6623739999999999       0.6                      0.55
-0.7028991999999993       0.6                      0.32999999999999996
-0.811568                 0.6                      0.55
-0.5131799999999997       0.6                      0.10999999999999995
-0.8382543999999995       0.6                      0.32999999999999996
-0.960762                 0.6000000000000001       0.5500000000000002
-0.9736096000000004       0.6                      0.33000000000000024
-0.7434243999999998       0.6                      0.11000000000000021
-0.5131799999999996       0.5999999999999999       -0.11000000000000017
-0.5131799999999997       0.5999999999999999       -0.33000000000000007
-0.5131799999999999       0.6                      -0.5500000000000002
-0.8244747999999996       0.6                      -0.32999999999999996
-0.7839495999999998       0.6                      -0.11000000000000021
-0.8649407999999997       0.6                      0.10999999999999983
-0.9864571999999998       0.6                      0.11000000000000007
-1.109956                 0.6                      0.55
-1.1089648000000007       0.6                      0.32999999999999996
-1.25915                  0.6                      0.55
-1.1079736000000002       0.6                      0.1099999999999996
-1.2443199999999999       0.6                      0.33000000000000007
-1.265                    0.6                      0.55
-0.9183135999999997       0.6                      -0.33000000000000007
-0.8916271999999996       0.6                      -0.11000000000000007
-0.9993047999999999       0.6                      -0.10999999999999995
-1.1069824000000001       0.6                      -0.11000000000000007
-1.2294900000000004       0.6                      0.10999999999999971
-1.265                    0.6                      0.33000000000000007
-1.0121524                0.6                      -0.33000000000000007
-1.1059912                0.6                      -0.33
-1.2146599999999999       0.6                      -0.11000000000000001
-1.265                    0.6                      0.10999999999999997
-1.1998300000000002       0.6                      -0.32999999999999996
-1.265                    0.6                      -0.11000000000000006
-1.265                    0.6                      -0.33000000000000007
1.2650000000000001        0.6                      -0.55
1.1650000000000007        0.6000000000000001       -0.55
1.2650000000000001        0.6                      -0.32999999999999996
1.1838300000000006        0.6                      -0.32999999999999985
1.2650000000000001        0.6                      -0.10999999999999993
1.2026600000000005        0.6                      -0.11000000000000007
1.2650000000000001        0.6                      0.11000000000000008
1.2650000000000001        0.6                      0.3300000000000002
1.2403200000000005        0.6                      0.33000000000000024
1.2650000000000001        0.6                      0.5500000000000002
1.2591500000000002        0.6                      0.5500000000000002
1.2214900000000006        0.6                      0.11000000000000021
1.0650000000000002        0.5999999999999999       -0.55
1.0739912                 0.6                      -0.32999999999999996
1.109956                  0.6                      0.5500000000000002
1.1009648                 0.6                      0.32999999999999996
0.9607620000000001        0.6                      0.5500000000000002
0.9616096000000004        0.6                      0.33000000000000007
0.9650000000000003        0.5999999999999999       -0.5499999999999999
1.0829824000000001        0.6                      -0.11000000000000007
1.0919736                 0.6                      0.10999999999999995
0.8115680000000002        0.6                      0.5500000000000002
0.9641524000000004        0.6                      -0.32999999999999985
0.8222544000000003        0.6                      0.33000000000000007
0.9633048000000004        0.6                      -0.10999999999999988
0.9624572000000001        0.6                      0.11000000000000007
0.8543136000000002        0.6                      -0.3299999999999999
0.8436272000000002        0.6                      -0.11000000000000001
0.8329408000000003        0.6                      0.10999999999999995
0.8650000000000003        0.6                      -0.55
0.6623740000000002        0.6000000000000001       0.5500000000000003
0.6890900000000003        0.6                      -0.55
0.6837468000000004        0.6                      -0.32999999999999985
0.6677172000000002        0.6                      0.33000000000000007
0.6784036000000003        0.6                      -0.10999999999999995
0.6730604000000002        0.6                      0.11000000000000021
0.5131800000000002        0.6                      0.5500000000000002
0.5131799999999999        0.5999999999999999       0.33000000000000007
0.51318                   0.5999999999999999       0.11000000000000017
0.5131800000000001        0.6                      -0.10999999999999995
0.51318                   0.5999999999999999       -0.32999999999999996
0.5131800000000002        0.6                      -0.55
1.2650000000000001        -0.6                     0.11000000000000006
1.2650000000000001        -0.6                     0.33000000000000007
1.2214900000000002        -0.6                     0.10999999999999995
1.2650000000000001        -0.6                     0.5500000000000002
1.2403200000000005        -0.6                     0.33000000000000007
1.2591500000000009        -0.6                     0.5500000000000002
1.0857250000000007        -0.6000000000000001      0.5500000000000003
1.0815800000000007        -0.6                     0.33
1.0774349999999997        -0.6                     0.10999999999999995
1.2650000000000001        -0.6                     -0.55
1.2650000000000001        -0.6                     -0.33000000000000007
1.1650000000000007        -0.6000000000000001      -0.55
1.2650000000000001        -0.6                     -0.10999999999999997
1.1838300000000008        -0.6                     -0.33000000000000024
1.2026600000000007        -0.6                     -0.10999999999999995
1.069145                  -0.6                     -0.33000000000000007
1.0650000000000002        -0.5999999999999999      -0.55
1.0732899999999996        -0.6                     -0.10999999999999995
0.9228400000000001        -0.6                     0.32999999999999996
0.9123000000000006        -0.6                     0.5500000000000002
0.7641                    -0.6                     0.32999999999999996
0.7388750000000004        -0.6                     0.5500000000000003
0.9333800000000007        -0.6                     0.11000000000000007
0.9439200000000004        -0.6                     -0.11000000000000007
0.9544600000000004        -0.6                     -0.32999999999999974
0.9650000000000003        -0.5999999999999999      -0.5499999999999999
0.8145500000000006        -0.6                     -0.11000000000000021
0.5654500000000003        -0.6                     0.5500000000000002
0.7893250000000002        -0.6                     0.10999999999999983
0.5654500000000002        -0.5999999999999999      0.32999999999999996
0.8397750000000007        -0.6                     -0.33000000000000024
0.8650000000000003        -0.6                     -0.55
0.5654500000000003        -0.5999999999999999      -0.11000000000000017
0.5654500000000003        -0.6                     0.10999999999999995
0.5654500000000003        -0.5999999999999999      -0.33000000000000007
0.5654500000000003        -0.6                     -0.55
1.1650000000000007        0.3900000000000001       -0.55
1.2650000000000003        0.4                      -0.55
1.2650000000000001        0.2                      -0.55
1.0650000000000002        0.3799999999999999       -0.55
0.9650000000000004        0.3699999999999999       -0.55
1.2650000000000001        -0.2                     -0.55
1.1650000000000007        -0.23999999999999966     -0.55
1.2650000000000001        1.1275702593849246E-17   -0.55
1.1650000000000007        0.18000000000000016      -0.55
1.0650000000000002        0.1599999999999999       -0.55
1.1650000000000007        -0.02999999999999974     -0.55
1.0650000000000002        -0.2800000000000002      -0.55
1.0650000000000002        -0.06000000000000007     -0.55
0.9650000000000004        0.14000000000000004      -0.55
0.8650000000000003        0.36                     -0.5499999999999998
0.9650000000000004        -0.3199999999999999      -0.55
0.8650000000000003        -0.36                    -0.5499999999999998
0.9650000000000004        -0.08999999999999993     -0.55
0.8650000000000002        0.12                     -0.5499999999999998
0.8650000000000002        -0.12000000000000001     -0.5499999999999998
1.2650000000000001        -0.2                     0.5500000000000002
1.2650000000000001        -0.19999999999999998     0.3300000000000001
1.2650000000000001        -0.2                     0.11000000000000021
1.2650000000000001        -0.20000000000000004     -0.3299999999999999
1.2650000000000001        -0.2                     -0.1099999999999998
1.2650000000000001        0.4                      0.33000000000000024
1.265                     0.39999999999999997      0.5500000000000002
1.2650000000000001        0.4                      -0.32999999999999985
1.2650000000000001        0.4                      0.11000000000000029
1.2650000000000001        0.3999999999999999       -0.10999999999999988
1.2650000000000001        0.2                      0.5500000000000002
1.2650000000000001        0.2                      0.3300000000000002
1.2650000000000001        0.2                      0.1100000000000002
1.2650000000000001        0.2                      -0.1099999999999998
1.2650000000000001        0.2                      -0.3299999999999998
-1.2591499999999998       -0.6                     0.55
-1.25915                  -0.36                    0.5499999999999998
-1.265                    -0.6                     0.55
-1.265                    -0.35999999999999993     0.55
-1.265                    0.12000000000000002      0.55
-1.265                    -0.11999999999999991     0.55
-1.2591499999999998       0.12                     0.5499999999999998
-1.2591499999999998       -0.12000000000000001     0.5499999999999998
-1.2591499999999998       0.36                     0.5499999999999998
-1.25915                  0.6                      0.55
-1.265                    0.36                     0.55
-1.265                    0.6                      0.55
1.2650000000000001        -0.6                     0.5500000000000002
1.2650000000000001        -0.2                     0.5500000000000002
1.2591500000000009        -0.6                     0.5500000000000002
1.2591500000000002        -0.36                    0.5500000000000002
1.2591500000000002        0.6                      0.5500000000000002
1.2591500000000002        0.36                     0.5500000000000002
1.2650000000000001        0.6                      0.5500000000000002
1.2591500000000002        -0.12                    0.5500000000000002
1.2650000000000001        -1.1275702593849246E-17  0.5500000000000002
1.2591500000000002        0.12000000000000001      0.5500000000000002
1.2650000000000001        0.2                      0.5500000000000002
1.265                     0.39999999999999997      0.5500000000000002
-0.5131799999999999       0.6                      0.55
-0.5236339999999995       0.3600000000000003       0.55
-0.43875000000000003      0.6                      0.55
-0.43874999999999975      -0.6                     0.55
-0.4387499999999998       -0.36                    0.5500000000000002
-0.5654499999999998       -0.6                     0.55
-0.4387499999999998       0.36                     0.55
-0.4387499999999998       0.12                     0.55
-0.5340879999999998       0.12000000000000002      0.55
-0.4387499999999998       -0.12000000000000001     0.55
-0.5445419999999999       -0.11999999999999998     0.55
-0.5549959999999998       -0.36                    0.55
-0.7041899999999998       -0.6                     0.55
-0.6958267999999997       -0.36                    0.55
-0.8429299999999997       -0.6                     0.55
-0.6874635999999996       -0.12000000000000002     0.55
-0.6623739999999999       0.6                      0.55
-0.6707371999999998       0.35999999999999993      0.55
-0.811568                 0.6                      0.55
-0.8178403999999998       0.35999999999999993      0.55
-0.6791003999999997       0.12000000000000013      0.55
-1.25915                  -0.36                    0.5499999999999998
-1.2591499999999998       -0.6                     0.55
-1.1183192                -0.35999999999999993     0.55
-1.1204099999999997       -0.6                     0.55
-0.8366575999999999       -0.36                    0.55
-0.9816699999999996       -0.6                     0.5499999999999999