% Model:              FOC_SAT_meshAnsys_001.mph
% Version:            COMSOL 6.0.0.405
% Date:               Nov 14 2023, 10:08
% Dimension:          3
% Nodes:              490
% Elements:           976
% Expressions:        1
% Description:        Material settings
% Length unit:        m
% Coordinates
-0.010999999940395355     0.1666666716337204       1.9830000400543213
-0.010999999940395355     0.1666666716337204       1.840142846107483
-0.010999999940395355     0                        1.9830000400543213
-0.010999999940395355     0                        1.840142846107483
-0.010999999940395355     0.3333333432674408       1.9830000400543213
-0.010999999940395355     0.3333333432674408       1.840142846107483
-0.010999999940395355     0.5                      1.9830000400543213
-0.010999999940395355     0.5                      1.840142846107483
-0.010999999940395355     0.6666666865348816       1.9830000400543213
-0.010999999940395355     0.6666666865348816       1.840142846107483
-0.010999999940395355     0.8333333134651184       1.9830000400543213
-0.010999999940395355     0.8333333134651184       1.840142846107483
-0.010999999940395355     1                        1.9830000400543213
-0.010999999940395355     1                        1.840142846107483
-0.010999999940395355     0                        1.697285771369934
-0.010999999940395355     0.1666666716337204       1.697285771369934
-0.010999999940395355     0.3333333432674408       1.697285771369934
-0.010999999940395355     0.5                      1.697285771369934
-0.010999999940395355     0.6666666865348816       1.697285771369934
-0.010999999940395355     0.8333333134651184       1.697285771369934
-0.010999999940395355     1                        1.697285771369934
-0.010999999940395355     0.1666666716337204       1.5544285774230957
-0.010999999940395355     0                        1.5544285774230957
-0.010999999940395355     0.3333333432674408       1.5544285774230957
-0.010999999940395355     0.5                      1.5544285774230957
-0.010999999940395355     0.6666666865348816       1.5544285774230957
-0.010999999940395355     0.8333333134651184       1.5544285774230957
-0.010999999940395355     1                        1.5544285774230957
-0.010999999940395355     0                        1.4115713834762573
-0.010999999940395355     0.1666666716337204       1.4115713834762573
-0.010999999940395355     0.3333333432674408       1.4115713834762573
-0.010999999940395355     0.5                      1.4115713834762573
-0.010999999940395355     0.6666666865348816       1.4115713834762573
-0.010999999940395355     0.8333333134651184       1.4115713834762573
-0.010999999940395355     1                        1.4115713834762573
-0.010999999940395355     0.1666666716337204       1.2687143087387085
-0.010999999940395355     0                        1.2687143087387085
-0.010999999940395355     0.3333333432674408       1.2687143087387085
-0.010999999940395355     0.5                      1.2687143087387085
-0.010999999940395355     0.6666666865348816       1.2687143087387085
-0.010999999940395355     0.8333333134651184       1.2687143087387085
-0.010999999940395355     1                        1.2687143087387085
-0.010999999940395355     0                        1.1258571147918701
-0.010999999940395355     0.1666666716337204       1.1258571147918701
-0.010999999940395355     0.3333333432674408       1.1258571147918701
-0.010999999940395355     0.5                      1.1258571147918701
-0.010999999940395355     0.6666666865348816       1.1258571147918701
-0.010999999940395355     0.8333333134651184       1.1258571147918701
-0.010999999940395355     1                        1.1258571147918701
-0.010999999940395355     0.1666666716337204       0.9829999804496765
-0.010999999940395355     0                        0.9829999804496765
-0.010999999940395355     0.3333333432674408       0.9829999804496765
-0.010999999940395355     0.5                      0.9829999804496765
-0.010999999940395355     0.6666666865348816       0.9829999804496765
-0.010999999940395355     0.8333333134651184       0.9829999804496765
-0.010999999940395355     1                        0.9829999804496765
-0.010999999940395355     0                        0.8401428461074829
-0.010999999940395355     0.1666666716337204       0.8401428461074829
-0.010999999940395355     0.3333333432674408       0.8401428461074829
-0.010999999940395355     0.5                      0.8401428461074829
-0.010999999940395355     0.6666666865348816       0.8401428461074829
-0.010999999940395355     0.8333333134651184       0.8401428461074829
-0.010999999940395355     1                        0.8401428461074829
-0.010999999940395355     0.1666666716337204       0.6972857117652893
-0.010999999940395355     0.3333333432674408       0.6972857117652893
-0.010999999940395355     0                        0.6972857117652893
-0.010999999940395355     0.5                      0.6972857117652893
-0.010999999940395355     0.6666666865348816       0.6972857117652893
-0.010999999940395355     0.8333333134651184       0.6972857117652893
-0.010999999940395355     1                        0.6972857117652893
-0.010999999940395355     0.5                      0.5544285774230957
-0.010999999940395355     0.5                      0.4115714430809021
-0.010999999940395355     0.3333333432674408       0.5544285774230957
-0.010999999940395355     0.1666666716337204       0.5544285774230957
-0.010999999940395355     0.3333333432674408       0.4115714430809021
-0.010999999940395355     0                        0.5544285774230957
-0.010999999940395355     0.6666666865348816       0.5544285774230957
-0.010999999940395355     0.6666666865348816       0.4115714430809021
-0.010999999940395355     0.8333333134651184       0.5544285774230957
-0.010999999940395355     1                        0.5544285774230957
-0.010999999940395355     0.3333333432674408       0.2687142789363861
-0.010999999940395355     0.6666666865348816       0.2687142789363861
-0.010999999940395355     0.5                      0.2687142789363861
-0.010999999940395355     0.1666666716337204       0.4115714430809021
-0.010999999940395355     0.1666666716337204       0.2687142789363861
-0.010999999940395355     0                        0.4115714430809021
-0.010999999940395355     0.8333333134651184       0.4115714430809021
-0.010999999940395355     1                        0.4115714430809021
-0.010999999940395355     0.8333333134651184       0.2687142789363861
-0.010999999940395355     0.1666666716337204       0.1258571445941925
-0.010999999940395355     0.3333333432674408       0.1258571445941925
-0.010999999940395355     0.8333333134651184       0.1258571445941925
-0.010999999940395355     0.6666666865348816       0.1258571445941925
-0.010999999940395355     0.5                      0.1258571445941925
-0.010999999940395355     0                        0.2687142789363861
-0.010999999940395355     0                        0.1258571445941925
-0.010999999940395355     1                        0.2687142789363861
-0.010999999940395355     1                        0.1258571445941925
-0.010999999940395355     0                        -0.017000000923871994
-0.010999999940395355     0.1666666716337204       -0.017000000923871994
-0.010999999940395355     1                        -0.017000000923871994
-0.010999999940395355     0.8333333134651184       -0.017000000923871994
-0.010999999940395355     0.3333333432674408       -0.017000000923871994
-0.010999999940395355     0.6666666865348816       -0.017000000923871994
-0.010999999940395355     0.5                      -0.017000000923871994
0.39399999380111694       0                        1.9830000400543213
0.39399999380111694       0                        1.840142846107483
0.5289999842643738        0                        1.9830000400543213
0.5289999842643738        0                        1.840142846107483
0.2590000033378601        0                        1.9830000400543213
0.2590000033378601        0                        1.840142846107483
0.6639999747276306        0                        1.9830000400543213
0.6639999747276306        0                        1.840142846107483
0.7990000247955322        0                        1.9830000400543213
0.7990000247955322        0                        1.840142846107483
0.12399999797344208       0                        1.9830000400543213
0.12399999797344208       0                        1.840142846107483
0.9340000152587891        0                        1.9830000400543213
0.9340000152587891        0                        1.840142846107483
1.069000005722046         0                        1.9830000400543213
1.069000005722046         0                        1.840142846107483
0.5289999842643738        0                        1.697285771369934
0.39399999380111694       0                        1.697285771369934
0.6639999747276306        0                        1.697285771369934
0.2590000033378601        0                        1.697285771369934
0.12399999797344208       0                        1.697285771369934
0.7990000247955322        0                        1.697285771369934
0.9340000152587891        0                        1.697285771369934
1.069000005722046         0                        1.697285771369934
0.39399999380111694       0                        1.5544285774230957
0.5289999842643738        0                        1.5544285774230957
0.2590000033378601        0                        1.5544285774230957
0.6639999747276306        0                        1.5544285774230957
0.7990000247955322        0                        1.5544285774230957
0.12399999797344208       0                        1.5544285774230957
0.9340000152587891        0                        1.5544285774230957
1.069000005722046         0                        1.5544285774230957
0.6639999747276306        0                        1.4115713834762573
0.5289999842643738        0                        1.4115713834762573
0.39399999380111694       0                        1.4115713834762573
0.2590000033378601        0                        1.4115713834762573
0.12399999797344208       0                        1.4115713834762573
0.7990000247955322        0                        1.4115713834762573
0.9340000152587891        0                        1.4115713834762573
1.069000005722046         0                        1.4115713834762573
0.6639999747276306        0                        1.2687143087387085
0.7990000247955322        0                        1.2687143087387085
0.39399999380111694       0                        1.2687143087387085
0.2590000033378601        0                        1.2687143087387085
0.5289999842643738        0                        1.2687143087387085
0.12399999797344208       0                        1.2687143087387085
0.9340000152587891        0                        1.2687143087387085
1.069000005722046         0                        1.2687143087387085
0.2590000033378601        0                        1.1258571147918701
0.12399999797344208       0                        1.1258571147918701
0.39399999380111694       0                        1.1258571147918701
0.9340000152587891        0                        1.1258571147918701
0.7990000247955322        0                        1.1258571147918701
0.6639999747276306        0                        1.1258571147918701
0.5289999842643738        0                        1.1258571147918701
1.069000005722046         0                        1.1258571147918701
0.12399999797344208       0                        0.9829999804496765
0.2590000033378601        0                        0.9829999804496765
0.9340000152587891        0                        0.9829999804496765
1.069000005722046         0                        0.9829999804496765
0.7990000247955322        0                        0.9829999804496765
0.39399999380111694       0                        0.9829999804496765
0.6639999747276306        0                        0.9829999804496765
0.5289999842643738        0                        0.9829999804496765
0.12399999797344208       0                        0.8401428461074829
1.069000005722046         0                        0.8401428461074829
0.9340000152587891        0                        0.8401428461074829
0.2590000033378601        0                        0.8401428461074829
0.39399999380111694       0                        0.8401428461074829
0.7990000247955322        0                        0.8401428461074829
0.6639999747276306        0                        0.8401428461074829
0.5289999842643738        0                        0.8401428461074829
0.12399999797344208       0                        0.6972857117652893
0.2590000033378601        0                        0.6972857117652893
0.9340000152587891        0                        0.6972857117652893
1.069000005722046         0                        0.6972857117652893
0.7990000247955322        0                        0.6972857117652893
0.39399999380111694       0                        0.6972857117652893
0.6639999747276306        0                        0.6972857117652893
0.5289999842643738        0                        0.6972857117652893
0.12399999797344208       0                        0.5544285774230957
1.069000005722046         0                        0.5544285774230957
0.9340000152587891        0                        0.5544285774230957
0.2590000033378601        0                        0.5544285774230957
0.39399999380111694       0                        0.5544285774230957
0.7990000247955322        0                        0.5544285774230957
0.6639999747276306        0                        0.5544285774230957
0.5289999842643738        0                        0.5544285774230957
0.12399999797344208       0                        0.4115714430809021
0.2590000033378601        0                        0.4115714430809021
0.9340000152587891        0                        0.4115714430809021
1.069000005722046         0                        0.4115714430809021
0.7990000247955322        0                        0.4115714430809021
0.39399999380111694       0                        0.4115714430809021
0.6639999747276306        0                        0.4115714430809021
0.5289999842643738        0                        0.4115714430809021
0.12399999797344208       0                        0.2687142789363861
1.069000005722046         0                        0.2687142789363861
0.9340000152587891        0                        0.2687142789363861
0.2590000033378601        0                        0.2687142789363861
0.39399999380111694       0                        0.2687142789363861
0.7990000247955322        0                        0.2687142789363861
0.6639999747276306        0                        0.2687142789363861
0.5289999842643738        0                        0.2687142789363861
0.12399999797344208       0                        0.1258571445941925
0.12399999797344208       0                        -0.017000000923871994
0.2590000033378601        0                        0.1258571445941925
0.9340000152587891        0                        0.1258571445941925
1.069000005722046         0                        0.1258571445941925
0.7990000247955322        0                        0.1258571445941925
0.39399999380111694       0                        0.1258571445941925
0.6639999747276306        0                        0.1258571445941925
0.5289999842643738        0                        0.1258571445941925
1.069000005722046         0                        -0.017000000923871994
0.9340000152587891        0                        -0.017000000923871994
0.2590000033378601        0                        -0.017000000923871994
0.39399999380111694       0                        -0.017000000923871994
0.7990000247955322        0                        -0.017000000923871994
0.6639999747276306        0                        -0.017000000923871994
0.5289999842643738        0                        -0.017000000923871994
0.12399999797344208       0.1666666716337204       -0.017000000923871994
0.12399999797344208       0.3333333432674408       -0.017000000923871994
0.12399999797344208       0.8333333134651184       -0.017000000923871994
0.12399999797344208       1                        -0.017000000923871994
0.12399999797344208       0.6666666865348816       -0.017000000923871994
0.12399999797344208       0.5                      -0.017000000923871994
0.2590000033378601        0.1666666716337204       -0.017000000923871994
0.2590000033378601        1                        -0.017000000923871994
0.2590000033378601        0.8333333134651184       -0.017000000923871994
1.069000005722046         0.8333333134651184       -0.017000000923871994
1.069000005722046         0.6666666865348816       -0.017000000923871994
0.9340000152587891        0.8333333134651184       -0.017000000923871994
0.9340000152587891        1                        -0.017000000923871994
0.7990000247955322        1                        -0.017000000923871994
1.069000005722046         1                        -0.017000000923871994
0.7990000247955322        0.8333333134651184       -0.017000000923871994
0.9340000152587891        0.6666666865348816       -0.017000000923871994
0.9340000152587891        0.1666666716337204       -0.017000000923871994
1.069000005722046         0.1666666716337204       -0.017000000923871994
1.069000005722046         0.3333333432674408       -0.017000000923871994
0.9340000152587891        0.3333333432674408       -0.017000000923871994
0.7990000247955322        0.1666666716337204       -0.017000000923871994
0.9340000152587891        0.5                      -0.017000000923871994
1.069000005722046         0.5                      -0.017000000923871994
0.2590000033378601        0.3333333432674408       -0.017000000923871994
0.2590000033378601        0.6666666865348816       -0.017000000923871994
0.2590000033378601        0.5                      -0.017000000923871994
0.39399999380111694       0.1666666716337204       -0.017000000923871994
0.6639999747276306        0.1666666716337204       -0.017000000923871994
0.5289999842643738        0.1666666716337204       -0.017000000923871994
0.39399999380111694       0.3333333432674408       -0.017000000923871994
0.39399999380111694       0.8333333134651184       -0.017000000923871994
0.39399999380111694       1                        -0.017000000923871994
0.5289999842643738        1                        -0.017000000923871994
0.6639999747276306        1                        -0.017000000923871994
0.6639999747276306        0.8333333134651184       -0.017000000923871994
0.5289999842643738        0.8333333134651184       -0.017000000923871994
0.39399999380111694       0.6666666865348816       -0.017000000923871994
0.7990000247955322        0.6666666865348816       -0.017000000923871994
0.7990000247955322        0.3333333432674408       -0.017000000923871994
0.6639999747276306        0.6666666865348816       -0.017000000923871994
0.6639999747276306        0.3333333432674408       -0.017000000923871994
0.7990000247955322        0.5                      -0.017000000923871994
0.39399999380111694       0.5                      -0.017000000923871994
0.5289999842643738        0.3333333432674408       -0.017000000923871994
0.5289999842643738        0.6666666865348816       -0.017000000923871994
0.6639999747276306        0.5                      -0.017000000923871994
0.5289999842643738        0.5                      -0.017000000923871994
0.5289999842643738        0.5                      1.9830000400543213
0.39399999380111694       0.5                      1.9830000400543213
0.5289999842643738        0.3333333432674408       1.9830000400543213
0.39399999380111694       0.3333333432674408       1.9830000400543213
0.6639999747276306        0.5                      1.9830000400543213
0.6639999747276306        0.3333333432674408       1.9830000400543213
0.7990000247955322        0.3333333432674408       1.9830000400543213
0.7990000247955322        0.5                      1.9830000400543213
0.2590000033378601        0.3333333432674408       1.9830000400543213
0.2590000033378601        0.5                      1.9830000400543213
0.7990000247955322        0.6666666865348816       1.9830000400543213
0.6639999747276306        0.6666666865348816       1.9830000400543213
0.2590000033378601        0.6666666865348816       1.9830000400543213
0.39399999380111694       0.6666666865348816       1.9830000400543213
0.5289999842643738        0.6666666865348816       1.9830000400543213
0.39399999380111694       0.1666666716337204       1.9830000400543213
0.5289999842643738        0.1666666716337204       1.9830000400543213
0.2590000033378601        0.1666666716337204       1.9830000400543213
0.6639999747276306        0.1666666716337204       1.9830000400543213
0.7990000247955322        0.1666666716337204       1.9830000400543213
0.12399999797344208       0.1666666716337204       1.9830000400543213
0.12399999797344208       0.3333333432674408       1.9830000400543213
0.9340000152587891        0.1666666716337204       1.9830000400543213
0.9340000152587891        0.3333333432674408       1.9830000400543213
0.9340000152587891        0.5                      1.9830000400543213
0.9340000152587891        0.6666666865348816       1.9830000400543213
0.12399999797344208       0.5                      1.9830000400543213
0.12399999797344208       0.6666666865348816       1.9830000400543213
0.9340000152587891        0.8333333134651184       1.9830000400543213
0.7990000247955322        0.8333333134651184       1.9830000400543213
0.12399999797344208       0.8333333134651184       1.9830000400543213
0.2590000033378601        0.8333333134651184       1.9830000400543213
0.6639999747276306        0.8333333134651184       1.9830000400543213
0.39399999380111694       0.8333333134651184       1.9830000400543213
0.5289999842643738        0.8333333134651184       1.9830000400543213
1.069000005722046         0.1666666716337204       1.9830000400543213
1.069000005722046         0.3333333432674408       1.9830000400543213
1.069000005722046         0.5                      1.9830000400543213
1.069000005722046         0.6666666865348816       1.9830000400543213
1.069000005722046         0.8333333134651184       1.9830000400543213
1.069000005722046         1                        1.9830000400543213
0.9340000152587891        1                        1.9830000400543213
0.12399999797344208       1                        1.9830000400543213
0.7990000247955322        1                        1.9830000400543213
0.6639999747276306        1                        1.9830000400543213
0.2590000033378601        1                        1.9830000400543213
0.39399999380111694       1                        1.9830000400543213
0.5289999842643738        1                        1.9830000400543213
0.9340000152587891        1                        1.840142846107483
1.069000005722046         1                        1.840142846107483
0.7990000247955322        1                        1.840142846107483
0.12399999797344208       1                        1.840142846107483
0.2590000033378601        1                        1.840142846107483
0.6639999747276306        1                        1.840142846107483
0.39399999380111694       1                        1.840142846107483
0.5289999842643738        1                        1.840142846107483
1.069000005722046         1                        1.697285771369934
0.9340000152587891        1                        1.697285771369934
0.12399999797344208       1                        1.697285771369934
0.7990000247955322        1                        1.697285771369934
0.6639999747276306        1                        1.697285771369934
0.2590000033378601        1                        1.697285771369934
0.39399999380111694       1                        1.697285771369934
0.5289999842643738        1                        1.697285771369934
0.9340000152587891        1                        1.5544285774230957
1.069000005722046         1                        1.5544285774230957
0.7990000247955322        1                        1.5544285774230957
0.12399999797344208       1                        1.5544285774230957
0.2590000033378601        1                        1.5544285774230957
0.6639999747276306        1                        1.5544285774230957
0.39399999380111694       1                        1.5544285774230957
0.5289999842643738        1                        1.5544285774230957
0.12399999797344208       1                        1.4115713834762573
1.069000005722046         1                        1.4115713834762573
0.9340000152587891        1                        1.4115713834762573
0.7990000247955322        1                        1.4115713834762573
0.6639999747276306        1                        1.4115713834762573
0.2590000033378601        1                        1.4115713834762573
0.39399999380111694       1                        1.4115713834762573
0.5289999842643738        1                        1.4115713834762573
0.12399999797344208       1                        1.2687143087387085
0.2590000033378601        1                        1.2687143087387085
0.9340000152587891        1                        1.2687143087387085
1.069000005722046         1                        1.2687143087387085
0.7990000247955322        1                        1.2687143087387085
0.6639999747276306        1                        1.2687143087387085
0.39399999380111694       1                        1.2687143087387085
0.5289999842643738        1                        1.2687143087387085
0.12399999797344208       1                        1.1258571147918701
1.069000005722046         1                        1.1258571147918701
0.9340000152587891        1                        1.1258571147918701
0.2590000033378601        1                        1.1258571147918701
0.39399999380111694       1                        1.1258571147918701
0.7990000247955322        1                        1.1258571147918701
0.6639999747276306        1                        1.1258571147918701
0.5289999842643738        1                        1.1258571147918701
0.12399999797344208       1                        0.9829999804496765
0.2590000033378601        1                        0.9829999804496765
0.9340000152587891        1                        0.9829999804496765
1.069000005722046         1                        0.9829999804496765
0.7990000247955322        1                        0.9829999804496765
0.39399999380111694       1                        0.9829999804496765
0.6639999747276306        1                        0.9829999804496765
0.5289999842643738        1                        0.9829999804496765
0.12399999797344208       1                        0.8401428461074829
1.069000005722046         1                        0.8401428461074829
0.9340000152587891        1                        0.8401428461074829
0.2590000033378601        1                        0.8401428461074829
0.39399999380111694       1                        0.8401428461074829
0.7990000247955322        1                        0.8401428461074829
0.6639999747276306        1                        0.8401428461074829
0.5289999842643738        1                        0.8401428461074829
0.12399999797344208       1                        0.6972857117652893
0.2590000033378601        1                        0.6972857117652893
0.9340000152587891        1                        0.6972857117652893
1.069000005722046         1                        0.6972857117652893
0.7990000247955322        1                        0.6972857117652893
0.39399999380111694       1                        0.6972857117652893
0.6639999747276306        1                        0.6972857117652893
0.5289999842643738        1                        0.6972857117652893
0.12399999797344208       1                        0.5544285774230957
1.069000005722046         1                        0.5544285774230957
0.9340000152587891        1                        0.5544285774230957
0.2590000033378601        1                        0.5544285774230957
0.39399999380111694       1                        0.5544285774230957
0.7990000247955322        1                        0.5544285774230957
0.6639999747276306        1                        0.5544285774230957
0.5289999842643738        1                        0.5544285774230957
0.12399999797344208       1                        0.4115714430809021
0.2590000033378601        1                        0.4115714430809021
0.9340000152587891        1                        0.4115714430809021
1.069000005722046         1                        0.4115714430809021
0.7990000247955322        1                        0.4115714430809021
0.39399999380111694       1                        0.4115714430809021
0.6639999747276306        1                        0.4115714430809021
0.5289999842643738        1                        0.4115714430809021
0.12399999797344208       1                        0.2687142789363861
1.069000005722046         1                        0.2687142789363861
0.9340000152587891        1                        0.2687142789363861
0.2590000033378601        1                        0.2687142789363861
0.39399999380111694       1                        0.2687142789363861
0.7990000247955322        1                        0.2687142789363861
0.6639999747276306        1                        0.2687142789363861
0.5289999842643738        1                        0.2687142789363861
0.12399999797344208       1                        0.1258571445941925
0.2590000033378601        1                        0.1258571445941925
0.9340000152587891        1                        0.1258571445941925
1.069000005722046         1                        0.1258571445941925
0.7990000247955322        1                        0.1258571445941925