% Model:              Box_wing_Wings_center.mph
% Version:            COMSOL 6.0.0.405
% Date:               Nov 9 2022, 09:54
% Dimension:          3
% Nodes:              112
% Elements:           88
% Expressions:        1
% Description:        Material settings
% Length unit:        m
% Coordinates
-0.5                      -6.705                   0.05
-0.5                      -5.939999999999999       0.05
-0.5                      -6.705                   -0.05
-0.5                      -5.939999999999999       -0.05
-0.5000000000000001       -4.646666666666666       0.05000000000000002
-0.5000000000000001       -4.6466666666666665      -0.05000000000000001
-0.5                      -3.353333333333333       0.05
-0.5                      -3.3533333333333326      -0.05
-0.5                      -2.06                    0.05
-0.5                      -2.06                    -0.05
-0.5                      -1.295                   0.05
-0.5                      -1.295                   -0.05
0.5                       -6.705                   -0.05
0.5                       -6.705                   0.05
0.5                       -1.295                   0.05
0.5                       -1.295                   -0.05
-0.5                      6.705                    -0.05
-0.5                      5.939999999999999        -0.05
-0.5                      6.705                    0.05
-0.5                      5.939999999999999        0.05
-0.5                      4.6466666666666665       -0.05000000000000001
-0.5                      4.6466666666666665       0.05
-0.49999999999999994      3.3533333333333326       -0.05
-0.5000000000000001       3.3533333333333344       0.05000000000000002
-0.5                      2.06                     -0.05
-0.5                      2.060000000000001        0.05
-0.5                      1.295                    0.05
-0.5                      1.295                    -0.05
0.5                       1.295                    0.05
0.5                       1.295                    -0.05
0.5                       6.705                    0.05
0.5                       6.705                    -0.05
0.5                       -5.939999999999999       -0.05
0.5                       -5.939999999999999       0.05
0.5                       -4.6466666666666665      -0.05
0.5                       -4.6466666666666665      0.05000000000000001
0.5000000000000001        -3.3533333333333344      -0.05000000000000002
0.49999999999999994       -3.3533333333333326      0.05
0.5                       -2.06                    0.05
0.5                       -2.060000000000001       -0.05
0.5                       5.939999999999999        -0.05
0.5                       5.939999999999999        0.05
0.5000000000000001        4.6466666666666665       -0.05000000000000001
0.5000000000000001        4.6466666666666665       0.05000000000000001
0.5                       3.3533333333333326       -0.05
0.5                       3.3533333333333326       0.05
0.5                       2.06                     -0.05
0.5                       2.06                     0.05
0.5                       -6.705                   -0.05
-0.5                      -6.705                   -0.05
0.5                       -5.939999999999999       -0.05
-0.5                      -5.939999999999999       -0.05
0.5                       -6.705                   0.05
0.5                       -5.939999999999999       0.05
-0.5                      -6.705                   0.05
-0.5                      -5.939999999999999       0.05
0.5                       -2.060000000000001       -0.05
-0.5                      -2.06                    -0.05
0.5                       -1.295                   -0.05
-0.5                      -1.295                   -0.05
0.5                       -2.06                    0.05
0.5                       -1.295                   0.05
-0.5                      -2.06                    0.05
-0.5                      -1.295                   0.05
-0.5                      2.06                     -0.05
0.5                       2.06                     -0.05
-0.5                      1.295                    -0.05
0.5                       1.295                    -0.05
-0.5                      2.060000000000001        0.05
-0.5                      1.295                    0.05
0.5                       2.06                     0.05
0.5                       1.295                    0.05
-0.5                      6.705                    -0.05
0.5                       6.705                    -0.05
-0.5                      5.939999999999999        -0.05
0.5                       5.939999999999999        -0.05
-0.5                      6.705                    0.05
-0.5                      5.939999999999999        0.05
0.5                       6.705                    0.05
0.5                       5.939999999999999        0.05
0.5                       -5.939999999999999       -0.05
-0.5                      -5.939999999999999       -0.05
0.5                       -4.6466666666666665      -0.05
-0.5000000000000001       -4.6466666666666665      -0.05000000000000001
0.5000000000000001        -3.3533333333333344      -0.05000000000000002
-0.5                      -3.3533333333333326      -0.05
0.5                       -2.060000000000001       -0.05
-0.5                      -2.06                    -0.05
0.5                       -5.939999999999999       0.05
0.5                       -4.6466666666666665      0.05000000000000001
-0.5                      -5.939999999999999       0.05
-0.5000000000000001       -4.646666666666666       0.05000000000000002
0.49999999999999994       -3.3533333333333326      0.05
-0.5                      -3.353333333333333       0.05
0.5                       -2.06                    0.05
-0.5                      -2.06                    0.05
-0.5                      5.939999999999999        -0.05
0.5                       5.939999999999999        -0.05
-0.5                      4.6466666666666665       -0.05000000000000001
0.5000000000000001        4.6466666666666665       -0.05000000000000001
-0.49999999999999994      3.3533333333333326       -0.05
0.5                       3.3533333333333326       -0.05
-0.5                      2.06                     -0.05
0.5                       2.06                     -0.05
-0.5                      5.939999999999999        0.05
-0.5                      4.6466666666666665       0.05
0.5                       5.939999999999999        0.05
0.5000000000000001        4.6466666666666665       0.05000000000000001
-0.5000000000000001       3.3533333333333344       0.05000000000000002
0.5                       3.3533333333333326       0.05
-0.5                      2.060000000000001        0.05
0.5                       2.06                     0.05
% Elements (triangles)
1          2         3
4          3         2
2          5         4
6          4         5
5          7         6
8          6         7
7          9         8
10         8         9
9          11        10
12         10        11
13         14        3
1          3         14
11         15        12
16         12        15
17         18        19
20         19        18
18         21        20
22         20        21
21         23        22
24         22        23
23         25        24
26         24        25
27         26        28
25         28        26
27         28        29
30         29        28
19         31        17
32         17        31
33         34        13
14         13        34
35         36        33
34         33        36
37         38        35
36         35        38
38         37        39
40         39        37
39         40        15
16         15        40
32         31        41
42         41        31
41         42        43
44         43        42
43         44        45
46         45        44
45         46        47
48         47        46
47         48        30
29         30        48
49         50        51
52         51        50
53         54        55
56         55        54
57         58        59
60         59        58
61         62        63
64         63        62
65         66        67
68         67        66
69         70        71
72         71        70
73         74        75
76         75        74
77         78        79
80         79        78
81         82        83
84         83        82
83         84        85
86         85        84
85         86        87
88         87        86
89         90        91
92         91        90
90         93        92
94         92        93
93         95        94
96         94        95
97         98        99
100        99        98
99         100       101
101        102       103
102        101       100
104        103       102
105        106       107
108        107       106
106        109       108
110        108       109
109        111       110
112        110       111
% Data (material.boundary)
2
2
2
2
2
2
2
2
2
2
2
2
2
2
2
2
2
2
2
2
2
2
2
2
2
2
2
2
2
2
2
2
2
2
2
2
2
2
2
2
2
2
2
2
2
2
2
2
0
0
0
0
0
0
0
0
0
0
0
0
0
0
0
0
0
0
0
0
0
0
0
0
0
0
0
0
0
0
0
0
1
1
1
1
1
1
1
1
1
1
1
1
1
1
1
1
1
1
1
1
1
1
1
1
1
1
1
1
1
1
1
1
