% Model:              Box_wing_Ray_Matlab_test.mph
% Version:            COMSOL 6.0.0.405
% Date:               Oct 20 2022, 13:30
% Dimension:          3
% Nodes:              939
% Elements:           1874
% Expressions:        1
% Description:        Material settings
% Length unit:        m
% Coordinates
-0.1683938285136409       -0.20833333333333354     0.30000000000000004
-0.16839382851364093      -0.20833333333333345     0.25000000000000006
-0.14433756729740638      -0.25                    0.3
-0.14433756729740638      -0.25000000000000006     0.25000000000000006
-0.19245008972987535      -0.16666666666666682     0.30000000000000004
-0.19245008972987535      -0.16666666666666674     0.25000000000000006
-0.21650635094610973      -0.12500000000000008     0.30000000000000004
-0.21650635094610973      -0.12500000000000003     0.25000000000000006
-0.24056261216234415      -0.08333333333333341     0.30000000000000004
-0.24056261216234415      -0.08333333333333337     0.25000000000000006
-0.288675134594813        -1.3191777439614462E-20  0.3
-0.288675134594813        -1.3191777439614462E-20  0.25
-0.2646188733785785       -0.04166666666666669     0.29999999999999993
-0.26461887337857853      -0.04166666666666671     0.25
-0.16839382851364093      -0.20833333333333348     0.2
-0.14433756729740638      -0.25                    0.19999999999999998
-0.19245008972987535      -0.16666666666666677     0.2
-0.21650635094610973      -0.12500000000000006     0.2
-0.24056261216234415      -0.08333333333333338     0.20000000000000007
-0.14433756729740638      -0.25                    0
-0.14433756729740638      -0.25                    0.04999999999999999
-0.1683938285136409       -0.20833333333333354     0
-0.16839382851364093      -0.20833333333333348     0.14999999999999997
-0.14433756729740638      -0.25                    0.14999999999999997
-0.16839382851364088      -0.20833333333333348     0.09999999999999995
-0.14433756729740638      -0.25                    0.1
-0.16839382851364088      -0.20833333333333348     0.04999999999999999
-0.26461887337857853      -0.04166666666666671     0.20000000000000004
-0.288675134594813        -1.3191777439614462E-20  0.2
-0.19245008972987535      -0.16666666666666682     0
-0.19245008972987535      -0.16666666666666677     0.15
-0.21650635094610973      -0.12500000000000008     0.15000000000000005
-0.24056261216234415      -0.0833333333333334      0.15000000000000008
-0.26461887337857853      -0.04166666666666671     0.15000000000000008
-0.19245008972987535      -0.16666666666666677     0.05000000000000002
-0.21650635094610973      -0.12500000000000008     0
-0.19245008972987535      -0.1666666666666668      0.10000000000000003
-0.288675134594813        -1.3191777439614462E-20  0.14999999999999997
-0.2886751345948129       -1.3191777439614457E-20  0.09999999999999998
-0.28867513459481303      -1.3191777439614465E-20  0.050000000000000024
-0.288675134594813        -1.3191777439614462E-20  0
-0.26461887337857853      -0.04166666666666671     0.050000000000000155
-0.2646188733785785       -0.04166666666666669     0
-0.21650635094610973      -0.12500000000000008     0.050000000000000044
-0.24056261216234415      -0.08333333333333341     0
-0.24056261216234415      -0.08333333333333337     0.05000000000000013
-0.21650635094610973      -0.12500000000000008     0.10000000000000006
-0.24056261216234415      -0.08333333333333341     0.10000000000000012
-0.26461887337857853      -0.04166666666666674     0.10000000000000009
-0.26461887337857853      0.041666666666666505     0.30000000000000004
-0.2646188733785785       0.04166666666666646      0.25
-0.24056261216234406      0.0833333333333332       0.30000000000000004
-0.2405626121623441       0.08333333333333315      0.25
-0.21650635094610965      0.12499999999999989      0.30000000000000004
-0.16839382851364082      0.20833333333333331      0.30000000000000004
-0.14433756729740638      0.25                     0.3
-0.1683938285136408       0.2083333333333333       0.25
-0.14433756729740638      0.25                     0.25
-0.19245008972987523      0.1666666666666666       0.3
-0.19245008972987523      0.16666666666666657      0.25
-0.21650635094610965      0.12499999999999989      0.25
-0.2646188733785785       0.04166666666666649      0.20000000000000007
-0.1683938285136408       0.20833333333333331      0.2
-0.14433756729740638      0.25                     0.2
-0.24056261216234404      0.08333333333333326      0.20000000000000004
-0.19245008972987523      0.16666666666666657      0.20000000000000004
-0.21650635094610957      0.12499999999999997      0.2
-0.2646188733785785       0.04166666666666649      0.14999999999999997
-0.1683938285136408       0.2083333333333333       0.14999999999999994
-0.14433756729740638      0.25                     0.14999999999999997
-0.19245008972987523      0.16666666666666657      0.14999999999999994
-0.24056261216234406      0.08333333333333318      0.14999999999999997
-0.21650635094610965      0.12499999999999989      0.14999999999999997
-0.2646188733785785       0.04166666666666649      0.09999999999999998
-0.14433756729740638      0.25                     0
-0.16839382851364082      0.20833333333333331      0
-0.14433756729740638      0.25000000000000006      0.050000000000000024
-0.1683938285136408       0.2083333333333333       0.09999999999999995
-0.14433756729740635      0.24999999999999994      0.09999999999999998
-0.24056261216234404      0.08333333333333323      0.09999999999999995
-0.19245008972987523      0.16666666666666657      0.09999999999999995
-0.21650635094610957      0.12499999999999997      0.09999999999999995
-0.2646188733785785       0.04166666666666646      0.04999999999999999
-0.26461887337857853      0.041666666666666505     0
-0.2405626121623441       0.08333333333333315      0.04999999999999999
-0.24056261216234406      0.0833333333333332       0
-0.1683938285136408       0.2083333333333333       0.04999999999999999
-0.19245008972987523      0.1666666666666666       0
-0.21650635094610965      0.12499999999999989      0.04999999999999999
-0.21650635094610965      0.12499999999999989      0
-0.19245008972987523      0.16666666666666657      0.04999999999999993
0.2646188733785785        0.041666666666666664     0
0.288675134594813         -2.7744366180540398E-17  0
0.23862584556492286       -2.723683585995965E-4    0
0.26461887337857853       -0.041666666666666505    0
0.24056261216234415       0.08333333333333338      0
0.21418283693534684       0.04132670579350622      0
0.24056261216234406       -0.0833333333333332      0
0.21397321813971107       -0.04110707374219151     0
0.09622504486493778       -0.25                    0
0.11936209132582523       -0.20253852483473894     0
0.14433756729740638       -0.25                    0
0.16839382851364082       -0.20833333333333331     0
0.21650635094610965       -0.12499999999999989     0
0.18957958345074785       -0.08209430439537065     0
0.19245008972987523       -0.1666666666666666      0
0.16643316634668492       -0.1233798670993361      0
0.1420369683843723        -0.16389767970929844     0
0.04811252243246895       -0.25000000000000006     0
0.06864270385707319       -0.19998945733664736     0
1.1102230246251565E-16    -0.25                    0
0.021616335512591713      -0.20608027695297668     0
0.19142366890519674       0.080999877993437        0
0.21650635094610973       0.12500000000000008      0
0.18895738395905554       0.0011517743713412652    0
0.1665569256059803        0.043361927181638        0
-0.04811252243246871      -0.25                    0
-0.027626150121555053     -0.2094130472780701      0
-0.11824144886916259      -0.20803782520100975     0
-0.09622504486493755      -0.25                    0
-0.07168589157755768      -0.20925629383952477     0
0.16321143668300586       -0.038006946530499734    0
0.09017967407661712       -0.15843441150019016     0
0.13908806129222553       -0.08009984310630855     0
0.11556327949420647       -0.11634782805535664     0
-0.007734279761458651     -0.17442056888193994     0
0.034737129936867665      -0.15442982849999756     0
0.11648144617509286       -0.035486069630952       0
0.1663149393200377        0.12069492188820323      0
0.19245008972987535       0.1666666666666668       0
0.15468845319552282       0.08018333518438986      0
0.13773085757568296       0.15918390616155365      0
0.1683938285136409        0.20833333333333354      0
0.11493429526018777       0.20390227022605337      0
0.14433756729740638       0.25                     0
0.09622504486493755       0.25                     0
0.14050903057600655       0.007951225245560576     0
0.11685408176100229       0.052692481544209385     0
-0.04648996831754307      -0.16597168139511573     0
-0.13845561763383882      -0.16058857807546728     0
-0.0914241865986068       -0.1606380988096358      0
0.06673635627805384       -0.10818162933256481     0
0.08901878201756885       -0.07356552718699298     0
-0.014810171200664623     -0.12412582776781887     0
0.024671893886057943      -0.10472889295700752     0
0.09581024180411087       0.008487423747019308     0
0.07015772737191521       -0.026448326220310996    0
0.11442208082296232       0.1071205955050018       0
0.09026966031061752       0.15627360617818883      0
0.04811252243246871       0.25                     0
0.06959422044923269       0.2043137637426218       0
0.02554283945500788       0.20555688247597764      0
-1.1102230246251565E-16   0.25                     0
0.07983236889783468       0.07381208151346341      0
0.07583333624284572       0.04280102227207934      0
-0.06404250387346447      -0.11648872754130549     0
-0.16786853025555384      -0.12363711220037928     0
-0.19351649982671545      -0.08030401252403478     0
-0.21516774265658714      -0.0419182589002687      0
-0.23645861249901495      -0.0026643876843080705   0
-0.11516016704852794      -0.10707849016740598     0
-0.15390872729341523      -0.07993160831779875     0
-0.03800878976445502      -0.07777099621335        0
0.03699015362853934       -0.06446595111420071     0
0.0018536376032446459     -0.08325478128889323     0
0.04808815469196057       0.013178321214170764     0
0.03267703372129229       -0.01922165890797652     0
0.05901729992335563       0.11341127604585079      0
0.03724805801244673       0.06368486287663135      0
0.045681824530375295      0.1613362367165045       0
0.004773325744800707      0.17143885911607193      0
-0.023929901932132496     0.20484991567142324      0
-0.04811252243246895      0.24999999999999997      0
-0.09622504486493778      0.24999999999999997      0
-0.12039540101020793      0.2024454292663274       0
-0.1687951193492265       0.1252394296450981       0
-0.07610050625059023      -0.07843127635570253     0
-0.20987138912013265      0.03798678509313524      0
-0.11311578942266305      -0.04977197060527378     0
-0.1657107009181721       -0.04161907418455063     0
-0.18509956053594528      -9.261535092369933E-5    0
0.011217752304543851      0.11925202219701024      0
-0.05917833747768343      -0.032775480431640816    0
-0.007920048035239144     -0.03364311837985988     0
0.00831530076892376       0.017282983502991647     0
-0.009301352878594368     0.06759511698327382      0
-0.03822038152193255      0.15292791142429396      0
-0.07064761413358504      0.19929272645860616      0
-0.1454065206448456       0.1637857580868658       0
-0.09468914427926728      0.15751714622344817      0
-0.1388694485068038       -0.005599298279334236    0
-0.19096081449456864      0.08232600381698389      0
-0.15240101231474992      0.04898477985633455      0
-0.12202910550894926      0.12040189240430058      0
-0.14918679516754144      0.0908643073326254       0
-0.08676019873624226      -0.001403178024656956    0
-0.11006366188189465      0.03111347986581436      0
-0.10431921546156485      0.07337443451878084      0
-0.07538795002925629      0.11278903225770695      0
-0.034511669135216735     0.10266629536134063      0
-0.05456835819098859      0.0693606125011271       0
-0.03837833095039066      0.019136369096590618     0
-0.08059256098995644      0.038846198586230576     0
0.26998418715929207       3.964082531534192E-17    0.30000000000000004
0.2646188733785785        0.041666666666666664     0.29999999999999993
0.2540341184434355        9.71445146547012E-17     0.3
0.288675134594813         -2.7744366180540398E-17  0.3
0.22863070659909193       0.04400000000000013      0.3
0.24056261216234415       0.08333333333333338      0.30000000000000004
0.20322729475474838       0.08800000000000016      0.3
0.21650635094610973       0.12500000000000008      0.30000000000000004
0.17782388291040482       0.1320000000000002       0.29999999999999993
0.19245008972987535       0.1666666666666668       0.30000000000000004
0.1524204710660613        0.17600000000000027      0.3
0.1683938285136409        0.20833333333333354      0.30000000000000004
0.1270170592217176        0.22                     0.3
0.14433756729740638       0.25                     0.3
-0.13499209357964598      -0.23381316470003935     0.3
-0.1270170592217176       -0.22                    0.3
-0.1524204710660613       -0.17600000000000027     0.3
-0.17782388291040482      -0.13200000000000023     0.29999999999999993
-0.20322729475474838      -0.08800000000000019     0.3
-0.22863070659909193      -0.04400000000000015     0.3
-0.2540341184434355       -1.1435066386028537E-16  0.3
-0.228630706599092        0.043999999999999845     0.3
0.09622504486493755       0.25                     0.30000000000000004
0.07621023553303051       0.22                     0.3
0.04811252243246871       0.25                     0.3
0.025403411844343405      0.22                     0.29999999999999993
-1.1102230246251565E-16   0.25                     0.29999999999999993
-0.02540341184434367      0.21999999999999997      0.29999999999999993
-0.04811252243246895      0.24999999999999997      0.30000000000000004
-0.07621023553303077      0.21999999999999997      0.3
-0.09622504486493778      0.24999999999999997      0.3
-0.1270170592217178       0.22                     0.3
-0.20322729475474843      0.08799999999999987      0.29999999999999993
-0.15242047106606135      0.17599999999999996      0.3
-0.1778238829104049       0.13199999999999995      0.3
-0.1270170592217176       -0.22                    0.2800000000000001
-0.1524204710660613       -0.17600000000000027     0.28
-0.17782388291040485      -0.1320000000000002      0.2799999999999999
-0.20322729475474838      -0.08800000000000019     0.27999999999999997
-0.2540341184434355       -1.1435066386028537E-16  0.2800000000000001
-0.15242047106606127      -0.1760000000000003      0.26
-0.12701705922171763      -0.22000000000000003     0.26000000000000006
-0.1524204710660613       -0.17600000000000027     0.24000000000000002
-0.1270170592217176       -0.22                    0.24000000000000002
-0.15242047106606135      -0.1760000000000002      0.22000000000000003
-0.12701705922171763      -0.22                    0.22000000000000003
-0.2032272947547484       -0.08800000000000018     0.26
-0.17782388291040482      -0.13200000000000026     0.26
-0.17782388291040485      -0.13200000000000023     0.2399999999999999
-0.2032272947547484       -0.08800000000000016     0.2399999999999999
-0.22863070659909193      -0.04400000000000015     0.23999999999999994
-0.22863070659909193      -0.04400000000000015     0.2799999999999999
-0.22863070659909193      -0.04400000000000016     0.25999999999999995
-0.25403411844343554      -1.143506638602854E-16   0.26000000000000006
-0.17782388291040485      -0.13200000000000023     0.21999999999999997
-0.15242047106606135      -0.1760000000000002      0.19999999999999996
-0.1270170592217176       -0.22                    0.2
-0.17782388291040485      -0.1320000000000002      0.1999999999999999
-0.2032272947547484       -0.08800000000000016     0.21999999999999997
-0.22863070659909193      -0.044000000000000136    0.21999999999999992
-0.2540341184434355       -1.1435066386028537E-16  0.24000000000000002
-0.25403411844343554      -1.143506638602854E-16   0.22000000000000003
-0.22863070659909193      -0.044000000000000136    0.19999999999999993
-0.2032272947547484       -0.08800000000000015     0.19999999999999996
-0.15242047106606127      -0.1760000000000003      0.18
-0.12701705922171763      -0.22000000000000003     0.18000000000000002
-0.2032272947547484       -0.08800000000000015     0.18
-0.17782388291040485      -0.13200000000000023     0.18
-0.15242047106606135      -0.1760000000000002      0.16000000000000003
-0.1270170592217176       -0.22                    0.16
-0.2540341184434355       -1.1435066386028537E-16  0.2
-0.22863070659909193      -0.04400000000000016     0.18
-0.22863070659909193      -0.044000000000000136    0.15999999999999998
-0.25403411844343554      -1.143506638602854E-16   0.18000000000000002
-0.17782388291040485      -0.1320000000000002      0.15999999999999998
-0.2032272947547484       -0.08800000000000015     0.15999999999999998
-0.15242047106606127      -0.1760000000000003      0.14
-0.1270170592217176       -0.22                    0.14
-0.17782388291040485      -0.1320000000000002      0.13999999999999999
-0.22863070659909193      -0.04400000000000016     0.13999999999999999
-0.2032272947547484       -0.08800000000000018     0.13999999999999999
-0.15242047106606135      -0.1760000000000002      0.12
-0.1270170592217176       -0.22                    0.12000000000000001
-0.1524204710660613       -0.17600000000000027     0.1
-0.1270170592217176       -0.22                    0.1
-0.2540341184434355       -1.1435066386028537E-16  0.16
-0.2540341184434355       -1.1435066386028537E-16  0.14
-0.2540341184434355       -1.1435066386028537E-16  0.12000000000000001
-0.17782388291040485      -0.1320000000000002      0.12
-0.2032272947547484       -0.08800000000000015     0.12
-0.22863070659909193      -0.044000000000000136    0.12
-0.17782388291040482      -0.13200000000000023     0.1
-0.2540341184434355       -1.1435066386028537E-16  0.1
-0.20322729475474838      -0.08800000000000019     0.1
-0.22863070659909193      -0.04400000000000015     0.1
-0.1270170592217178       0.22                     0.2800000000000001
-0.15242047106606135      0.17599999999999993      0.28
-0.1778238829104049       0.1319999999999999       0.2800000000000001
-0.22863070659909204      0.04399999999999976      0.28
-0.20322729475474846      0.08799999999999986      0.27999999999999997
-0.22863070659909202      0.04399999999999979      0.26000000000000006
-0.12701705922171783      0.22000000000000003      0.26000000000000006
-0.15242047106606135      0.17599999999999993      0.26
-0.1778238829104049       0.13199999999999992      0.26000000000000006
-0.2032272947547485       0.08799999999999983      0.26000000000000006
-0.22863070659909204      0.04399999999999976      0.24000000000000005
-0.22863070659909204      0.04399999999999976      0.22000000000000003
-0.2032272947547485       0.08799999999999983      0.24
-0.1778238829104049       0.13199999999999992      0.24
-0.2032272947547485       0.08799999999999983      0.21999999999999997
-0.1270170592217178       0.22                     0.24000000000000002
-0.15242047106606135      0.17599999999999993      0.24000000000000002
-0.12701705922171783      0.22                     0.22000000000000003
-0.15242047106606135      0.17599999999999993      0.22000000000000003
-0.1778238829104049       0.13199999999999992      0.22000000000000003
-0.20322729475474846      0.08799999999999986      0.19999999999999996
-0.22863070659909202      0.04399999999999979      0.2
-0.22863070659909202      0.04399999999999979      0.18000000000000005
-0.1270170592217178       0.22                     0.2
-0.15242047106606135      0.17599999999999996      0.2
-0.1778238829104049       0.13199999999999992      0.2
-0.12701705922171783      0.22000000000000003      0.18000000000000002
-0.15242047106606135      0.17599999999999996      0.18000000000000005
-0.2032272947547485       0.0879999999999998       0.18
-0.1778238829104049       0.1319999999999999       0.18
-0.1778238829104049       0.13199999999999992      0.15999999999999998
-0.15242047106606135      0.17599999999999996      0.16000000000000003
-0.20322729475474843      0.08799999999999988      0.15999999999999998
-0.22863070659909193      0.04399999999999987      0.16000000000000003
-0.228630706599092        0.043999999999999845     0.14
-0.1270170592217178       0.22                     0.16
-0.20322729475474843      0.08799999999999988      0.14
-0.1270170592217178       0.22                     0.14
-0.15242047106606135      0.17599999999999996      0.14
-0.1778238829104049       0.1319999999999999       0.14
-0.22863070659909202      0.04399999999999979      0.12000000000000001
-0.1270170592217178       0.22                     0.12000000000000001
-0.15242047106606135      0.17599999999999996      0.12000000000000001
-0.20322729475474843      0.08799999999999988      0.12000000000000001
-0.1778238829104049       0.13199999999999992      0.12000000000000001
-0.228630706599092        0.043999999999999845     0.1
-0.1270170592217178       0.22                     0.1
-0.15242047106606135      0.17599999999999996      0.1
-0.1778238829104049       0.13199999999999995      0.1
-0.20322729475474843      0.08799999999999987      0.1
0.07911430248893131       -0.21465769078109523     0.1
0.04811252243246891       -0.25000000000000006     0.10000000000000003
0.09622504486493777       -0.25                    0.10000000000000002
0.2540341184434355        9.714451465470109E-17    0.1
0.2646188733785784        -0.04166666666666654     0.09999999999999998
0.288675134594813         -2.08166817117217E-17    0.1
0.12017251524546677       -0.21243732266635598     0.1
0.14433756729740638       -0.25                    0.1
0.16839382851364082       -0.20833333333333326     0.1
0.19245008972987523       -0.1666666666666666      0.10000000000000002
0.14374204149253567       -0.16872820257568868     0.1
0.21650635094610965       -0.12499999999999989     0.1
0.16840261785720848       -0.12818437865571491     0.1
0.24056261216234406       -0.08333333333333323     0.10000000000000003
0.1915291133909738        -0.08292483509597569     0.1
0.01981914099342686       -0.21722545276073926     0.1
8.326672684688674E-17     -0.25                    0.1
0.09651848701863722       -0.16960025835270934     0.1
0.04710545520166429       -0.20718225466220272     0.1
0.05923933647085016       -0.18136351685425828     0.1
-0.005507817735805713     -0.21242639605865554     0.1
0.03150093238275275       -0.18391235750145452     0.1
0.0031680785854152813     -0.19144122052209314     0.1
-0.02516477521192215      -0.19897008354273252     0.1
-0.03593378702197759      -0.22303398445844397     0.1
-0.048112522432468746     -0.25                    0.1
-0.049372545415236765     -0.19970521497384774     0.1
0.21910284311667585       -0.03871618619367073     0.1
0.22863070659909193       0.04400000000000013      0.1
0.2002083928278788        1.1334262867170562E-4    0.1
0.20322729475474838       0.08800000000000016      0.1
0.18365955160190364       0.039725539854769884     0.1
0.061047081591986185      -0.15065680216947472     0.1
0.12282853408391123       -0.13047133410669742     0.1
0.16627712937928946       -0.041452148353062296    0.1
0.1426240982303415        -0.08427847914178498     0.1
0.08279569754675181       -0.12806897226609398     0.1
0.17782388291040482       0.1320000000000002       0.1
0.16283772502806232       0.08193541717502144      0.1
0.13104081778983245       0.10782895831564009      0.1
0.03914717264393497       -0.1556109548409304      0.09999999999999998
-0.04585138874807743      -0.1781975439028472      0.09999999999999999
-0.07719726996153774      -0.22185413279965305     0.1
-0.09622504486493759      -0.25                    0.1
-0.06759364416551078      -0.18682216867267382     0.1
0.046793412905117196      -0.1273095521804062      0.1
0.14911359357164236       -3.245332543990089E-4    0.1
0.12256072662750986       0.019064517705163778     0.1
0.14260282040113484       0.04687521882642805      0.1
0.13686400389819348       0.07701203614194742      0.1
0.10015575924515381       -0.09020472349683852     0.1
0.11240789726782777       -0.04122183618914037     0.1
0.05893172537291838       -0.10040319442014518     0.1
0.1524204710660613        0.17600000000000027      0.1
0.12599998248512762       0.14422492260825626      0.1
0.1270170592217176        0.22                     0.1
0.1019508045292146        0.18403246041840465      0.1
0.08301847627026383       0.14275836926879756      0.1
0.11603866981758189       0.0925387461457958       0.1
0.09770739559692933       0.1109014423395449       0.1
0.07100004177903162       0.1182319417175776       0.1
-0.0665380022842327       -0.157425004262962       0.1
-0.10222960400250126      -0.18111633005400438     0.1
0.026106799368961958      -0.10653701254052098     0.09999999999999998
0.10857988255865572       -0.0025183947217302903   0.1
0.08366568480684072       -0.01056170875628848     0.1
0.0977073955969282        0.02091542314989525      0.1
0.11603866981757696       0.03927811934363662      0.10000000000000003
0.123323550751887         0.0659084327447204       0.1
0.06976455359747731       -0.06602413387655029     0.1
0.06942879453939343       -0.033127614283837356    0.1
0.03407234108866722       -0.07576855866383467     0.1
0.07100004177903153       0.013584923771863195     0.1
0.05598411441238695       -0.009779701562796079    0.1
0.07621023553303051       0.22                     0.10000000000000002
0.049123051261682926      0.17519476198321587      0.1
0.025403411844343405      0.22                     0.10000000000000002
0.04683923056200208       0.1367137874402312       0.1
0.04429268796113762       0.11090144233954936      0.1
-0.05889176202305044      -0.1291236016024377      0.10000000000000003
-0.0920958122795613       -0.13804344818350028     0.1
-0.0783873980472603       -0.1111603010927461      0.1
-0.051245521761868196     -0.1008221989419136      0.1
-0.13439408995815288      -0.14007491351864823     0.1
-0.10847938300688034      -0.10465070395793774     0.1
0.00542018583280671       -0.0857644729006359      0.1
0.035954837164406526      -0.0393372421057496      0.1
0.009698744493915957      -0.05878673504878179     0.1
0.044292687961126384      0.020915423149898096     0.1
0.030594511493605703      -0.0035328727428221487   0.1
0.025961413740479285      0.09253874614579882      0.10000000000000002
0.016540057768322243      0.11934920394748538      0.1
0.020762927303661145      0.14694347829244922      0.1
4.4134345949608036E-4     0.1793855915471273       0.1
-0.02540341184434367      0.21999999999999997      0.1
-0.022912667964530783     -0.09329333592127474     0.1
-0.02165094663916302      -0.06142423982072393     0.1
-0.08057826335059766      -0.0858523081964676      0.1
-0.05183579571940715      -0.06880767348407181     0.1
-0.14771186108239445      -0.09005634305265925     0.1
-0.11147780836914226      -0.07375403574447731     0.1
-0.006575638380974191     -0.01922330834410072     0.1
0.011174467997944207      0.01663527025063486      0.1
0.02596141374048036       0.03927811934364017      0.1
-0.005721464695815061     0.08814670176900634      0.1
0.0186765328061725        0.0659084327447204       0.1
-0.0043138156868620416    0.050160733910099176     0.1
-0.01480058496558273      0.13344510756638003      0.1
-0.07621023553303077      0.21999999999999997      0.1
-0.051937171184604586     0.17094920346519824      0.1
-0.10276838953765885      0.17516212212689894      0.1
-0.04777937692092231      -0.03636886271526603     0.1
-0.04448254833250425      -0.0033775251257686673   0.1
-0.20540208508613267      9.27892008675938E-4      0.1
-0.1789533192511168       -0.04753170708498019     0.1
-0.09045658155474957      -0.045510446600862196    0.1
-0.1330774713657838       -0.04723974180477838     0.1
-0.17746057157603595      0.047349374860589294     0.1
-0.038024900970363276     0.09582714378736466      0.1
-0.025053312366459718     0.02132884229782834      0.1
-0.03062398249286382      0.05944384071098556      0.1
-0.1392992173498906       0.14182468676678867      0.1
-0.14892508645704763      0.11775146545981063      0.1
-0.052047803277252544     0.1269593991733428       0.1
-0.0778152784999879       0.14322793459971497      0.1
-0.10344416541337781      0.1366424083405537       0.1
-0.1592634013456095       0.09168729588877553      0.1
-0.06383422424872871      0.09522183711342852      0.1
-0.07576285126629902      -0.008392783426012825    0.1
-0.0547664179809908       0.01683150530036838      0.1
-0.1544355995084395       0.005386310025101423     0.1
-0.11075270807383278      -0.004667006871891989    0.1
-0.14465167512743476      0.0628340848083891       0.1
-0.14594243919926167      0.041173474660883086     0.1
-0.057053790212992866     0.07271025853144794      0.1
-0.05319650423245818      0.04410378148372136      0.1
-0.12787349951219099      0.1108079780671574       0.1
-0.0820971253509697       0.1108079780671574       0.1
-0.12787349951219099      0.08417991703233466      0.10000000000000002
-0.08209712535096972      0.08417991703233464      0.10000000000000002
-0.0820971253509697       0.030923794962689048     0.1
-0.12787349951219099      0.030923794962689048     0.1
-0.12787349951219099      0.05755185599751187      0.10000000000000002
-0.0820971253509697       0.05755185599751187      0.10000000000000002
0.14433756729740638       -0.25                    0.04999999999999999
0.09622504486493777       -0.25                    0.04999999999999999
0.048112522432468885      -0.25                    0.04999999999999999
-0.04811252243246873      -0.25                    0.04999999999999999
5.551115123125783E-17     -0.25                    0.04999999999999999
-0.09622504486493756      -0.25                    0.04999999999999999