% Model:              Cannon.mph
% Version:            COMSOL 6.0.0.405
% Date:               Nov 3 2022, 09:54
% Dimension:          3
% Nodes:              3275
% Elements:           6546
% Expressions:        1
% Description:        Material settings
% Length unit:        m
% Coordinates
-0.08239599198906561      -0.09623144843906617     -0.07975273559858116
-0.09029937730597537      -0.09187006801207716     -0.07626272393253093
-0.08497102405278686      -0.08905399799853517     -0.0852021156538828
-0.102443638295463        -0.07970926062577116     -0.07457764238215928
-0.10773348123439307      -0.0775734440561429      -0.06918054494138617
-0.10632738794385678      -0.07249971829234372     -0.07647461945356374
-0.0892785530291616       -0.07625394475517448     -0.09286961762758573
-0.08899712120364864      -0.06887055936185411     -0.09872410278472228
-0.08293705095940732      -0.07619843858537892     -0.09861710569321593
-0.08357587512861503      -0.0830298993403448      -0.09236448945356851
-0.09594149582161889      -0.06899399928414657     -0.09189748332946596
-0.09247080594982324      -0.08456007733541496     -0.08190746832871096
-0.09719806390051633      -0.0851813704248838      -0.0755431036331569
-0.09802151229878421      -0.08044990440258107     -0.07955932382992498
-0.08935347160086307      -0.0819417838411473      -0.08781566587918384
-0.09572400112622678      -0.07672996646089313     -0.0857876322979971
-0.10197245314538364      -0.06092533308021141     -0.09110330723183348
-0.10228330705491172      -0.06910407580211275     -0.08469263135271278
-0.1083884864061991       -0.06041242232458706     -0.08373986651200811
-0.10899448557430623      -0.06630243850704173     -0.07832163661729948
-0.100929742428784        -0.07610199664205063     -0.0801982742978466
-0.07669895898195916      -0.08257579151393452     -0.09853221984168922
-0.07588021815404353      -0.0754853270544797      -0.10466254292903937
-0.08222693056140666      -0.0687987824552014      -0.10447750678079702
-0.07712960608641053      -0.08931221317106901     -0.09211103323403053
-0.07671848170731455      -0.0953668708681571      -0.08619468954257392
-0.06918201336316522      -0.08910877703793658     -0.09840510597434536
-0.06769972174059317      -0.06784174341154071     -0.11499711095122755
-0.06081125334745803      -0.07351258229912429     -0.11536022585807364
-0.06834858398029811      -0.07479092899476988     -0.11020380214850772
-0.07512286056322348      -0.06850677088871152     -0.10987933455932503
-0.06932568823439951      -0.09537332412187323     -0.09223864698037892
-0.06902739101765516      -0.10228949822496863     -0.08474767160329473
-0.05303350537010976      -0.11912460676593423     -0.07353139037866811
-0.044551394452129724     -0.12417402941063893     -0.07075361243284
-0.05320774620487442      -0.12383463990362421     -0.06514604902630242
-0.060831939207606114     -0.118945319899765       -0.06753944067124547
-0.06112693802302289      -0.11378836028420594     -0.07566899306691792
-0.0691799322711747       -0.10821267864861277     -0.07690411660403985
-0.06134452132943193      -0.1081562944470089      -0.08336159592015252
-0.06886774344258086      -0.1132748461737479      -0.0695423118499854
-0.06736138434141517      -0.1181927694584082      -0.06247401977910279
-0.07481396393509704      -0.11422814779348742     -0.061358708037141746
-0.07075445135039227      -0.12053801310650028     -0.05361422395635465
-0.10257161652132098      -0.08433965367988651     -0.06910843871308253
-0.10788857344260927      -0.09384497341663581     -0.044308765328652897
-0.11388091739606675      -0.08640230505451217     -0.04445074053710751
-0.1084972456826393       -0.08842050568480925     -0.053106043476459704
-0.11434055262617787      -0.08076433211991092     -0.053041970950983536
-0.10841168454146978      -0.08317283232403419     -0.061149624840050675
-0.10111872158151826      -0.10110304186621953     -0.044308792255227
-0.10239307355712762      -0.09554502195157265     -0.05288570003127657
-0.09018805614907806      -0.10284310670904936     -0.06082351461796528
-0.08245419350443477      -0.1088037603900162      -0.06142587157318306
-0.08843782499636269      -0.1084960430266364      -0.05307965483568069
-0.09569989565022437      -0.10217942838672371     -0.053018717327926485
-0.10285268522333646      -0.09004354765918662     -0.06102110018097888
-0.0969064943196884       -0.09638964653721442     -0.06105945790046845
-0.0970418486976963       -0.09072525083201403     -0.06900651029288153
-0.0912111897808443       -0.09701359724166352     -0.06840300292381254
-0.08584418947630848      -0.09835127753500673     -0.0732658947968817
-0.07574108010592977      -0.10237408905180487     -0.07869513755754078
-0.08481062182336993      -0.10297723399312657     -0.06791861088875562
-0.07700874027404998      -0.10712279967889832     -0.07074213532512673
-0.08140278855928343      -0.10136611173904851     -0.07421985856682384
-0.08816041991125581      -0.06106044402636711     -0.10444832471789073
-0.06165821358229262      -0.06669734976129259     -0.11899503448741126
-0.06588806264529244      -0.06096979095313317     -0.1197979039548742
-0.08112716848821488      -0.06092702665050329     -0.11007438374396498
-0.07946499771801181      -0.05294439000607652     -0.11529221875114057
-0.07351324749723585      -0.060981584932994146    -0.11526985183242917
-0.07131818983548392      -0.05333713895484497     -0.12032853114162678
-0.05791150491523632      -0.061573272197453205    -0.12355193138656678
-0.06303685212074704      -0.05357432761934356     -0.12476472536274955
-0.06849074540277435      -0.04451389271395153     -0.125449675765317
-0.11945489640347752      -0.07847007043168047     -0.04453162664535813
-0.11878163782524812      -0.08381574516693929     -0.03572020965311218
-0.12472177733547764      -0.06994303679578737     -0.044300562773656495
-0.11978764568759291      -0.07279183521059651     -0.05255814558464819
-0.11399343124416485      -0.060539805858319536    -0.07583218010725293
-0.11254397432509079      -0.06920802289135623     -0.07038603135980052
-0.11425495206681555      -0.07517746826931594     -0.06086250235428776
-0.11896627400113816      -0.06714511862522311     -0.06122620921705705
-0.09068089968857751      -0.03578659069210289     -0.11360626900970758
-0.09282661564762279      -0.04447999308858276     -0.10869608844042249
-0.09833637047051146      -0.03578053996055728     -0.10705046101169903
-0.1001174632973835       -0.044472375512293584    -0.1020234843513523
-0.08503835393930988      -0.044527088548795474    -0.11487343794219966
-0.09437763772664964      -0.053048783594411356    -0.10338654678579122
-0.10143184222207781      -0.05290026860636279     -0.09655688978426236
-0.08693069136496125      -0.053017196791513746    -0.10973751292598062
-0.09543936088653823      -0.06098891815223017     -0.09788651723393622
-0.10545624360953827      -0.03578301498079623     -0.10004322327199297
-0.1140149974398346       -0.0525278107892182      -0.0815567253663768
-0.11930379718240301      -0.0524945394594735      -0.0736275580526601
-0.10777392370294304      -0.052866823463072504    -0.08944255333227327
-0.11333620906436136      -0.04438949123019252     -0.08714681166424874
-0.10689158646511476      -0.04450739227269759     -0.09488609369162121
-0.11216253855066964      -0.035791843586377915    -0.09245863333706492
-0.07550048887224045      -0.12424669900656106     -0.035672453882873274
-0.0837174969932221       -0.11880866552561033     -0.03586044747648175
-0.07811180799498141      -0.11964981696035314     -0.04463806394893443
-0.06969804991783         -0.12508382788357886     -0.04366128536407173
-0.06380933370758284      -0.12576579498464124     -0.050213780416092264
-0.0603596163997551       -0.12985223548348965     -0.04364863855854814
-0.05791409591362627      -0.1334963844228734      -0.03513919237159144
-0.06688605510991398      -0.1291111447513763      -0.03559013813997795
-0.061248132309136595     -0.12348202877716781     -0.05840329492175253
-0.052405986323618634     -0.1281102548514369      -0.0570216204553027
-0.0579947531231502       -0.12801207230043243     -0.05157138698477803
-0.05227957937042988      -0.13162628325303627     -0.048491825474428055
-0.053186697812370114     -0.13377294899062883     -0.041061701062745176
-0.04947346263835874      -0.136858614121799       -0.03510251038361005
-0.04450914087521055      -0.13608149017377777     -0.04371332074590877
-0.06892125896213262      -0.08220803054133395     -0.10441163621737648
-0.06117640608450671      -0.08838714625900675     -0.10418852966988491
-0.06109638458564833      -0.08105748312058467     -0.11003184184916061
-0.053013027296981985     -0.08697518174777814     -0.10970426927312543
-0.06131778056818183      -0.0950951009253028      -0.0980160270884246
-0.061441393797787014     -0.10192999935048103     -0.09080374640176586
-0.053057625353075205     -0.10780812708997954     -0.08928821940907736
-0.05305515777846829      -0.10122768197290515     -0.09668607260352559
-0.05350591043908115      -0.054202527181967615    -0.1288770483646064
-0.0507863619405149       -0.06308103827083945     -0.12590320905965788
-0.053589166829424384     -0.06997383346697345     -0.1210039413757436
-0.05299699903337032      -0.07895622378144673     -0.11561713895279999
-0.04452155101225037      -0.08507571149955763     -0.11484792034820497
-0.04513255531339715      -0.07631997431275556     -0.12061676488690735
-0.03630225739070649      -0.08226259949361005     -0.11968751327056976
-0.04439033143417154      -0.06854715530854719     -0.12546264772541
-0.03588793941691845      -0.07414871060991973     -0.1249964580269936
-0.02701297124207561      -0.07969838090601958     -0.12380855166600496
-0.05301541464081415      -0.11373107803773884     -0.08163759978610541
-0.0445111428153034       -0.11900524638837799     -0.07916185632814023
-0.03583491842501075      -0.12380752086720048     -0.07614227733782693
-0.04455714249812973      -0.11321033873628143     -0.0872248259133705
-0.03584243447490091      -0.1182361705420865      -0.08453175655607234
-0.0358012050915199       -0.11216026490358652     -0.09245776706557561
-0.027069726295009904     -0.13265618196718873     -0.06387219507893376
-0.02701809728396297      -0.1279860711824728      -0.07279888737081996
-0.01810573395387231      -0.13170517332780687     -0.06881874538731401
-0.027043621920555736     -0.1227100385280867      -0.08136939816573256
-0.02697067894563413      -0.11692629403363324     -0.08950371076537485
-0.018114333891890766     -0.12668320010430184     -0.07767449851132945
-0.018094018137227528     -0.1149234422113051      -0.09420880499164877
-0.01803938780769395      -0.1211148521333101      -0.08611540559185714
-0.009062613682126254     -0.12477991953408106     -0.08220663424758859
-0.009065695886072136     -0.11888248095361707     -0.09052545984646605
-0.04459425109385341      -0.12850313051739176     -0.06251710339265999
-0.035984302472802286     -0.1285561903465531      -0.06773865882291062
-0.035920209362252764     -0.1329616903619459      -0.0586601862890492
-0.04417550221691041      -0.05956370638920781     -0.13004145448688273
-0.053081254517885576     -0.09420560677110626     -0.10352668289718917
-0.044522588584218974     -0.10694680134945242     -0.09481672208466788
-0.027070324656996367     -0.11044724893379235     -0.09735857808083337
-0.044548542734016615     -0.09268503677370987     -0.10878879215494375
-0.04454958452851152      -0.10005063461100946     -0.10205535278598221
-0.035873071317254104     -0.10549898868135606     -0.09996587488477414
-0.03586705725128509      -0.09066376069045907     -0.1135945716202857
-0.03584978148267912      -0.09822384445173771     -0.10713057242806555
-0.027273482670829616     -0.08783322775531323     -0.1181167695337425
-0.11288091383336658      -0.09161675829558179     -0.035698163700014385
-0.10630476964758485      -0.09917202381636606     -0.035697277800135624
-0.111003482569735        -0.09679001909338193     -0.026832984576697933
-0.11734989541829613      -0.08898923106912686     -0.02683297968993608
-0.1231491625722689       -0.08077354040745925     -0.026832982089090244
-0.10413952480666637      -0.10413952480666633     -0.026832978703145455
-0.10144009718918856      -0.10861581594903644     -0.017961102638007098
-0.1086158159490365       -0.10144009718918849     -0.017961102638007116
-0.11528513003428216      -0.09379140446506712     -0.017961103569904976
-0.12141692229638293      -0.08570542459611437     -0.01796110171659497
-0.1269826175374925       -0.07721983947911477     -0.017961103366627
-0.12420969540741719      -0.07550192564369959     -0.035798055685887585
-0.12910318466028703      -0.06688159690846783     -0.0356273729812494
-0.12920148067463774      -0.06138030609647276     -0.044153430387508054
-0.1333974788822422       -0.057874320365939445    -0.03557760067854996
-0.13300204820344064      -0.06325110671103769     -0.02682988396394187
-0.1332863030630608       -0.052193026066299136    -0.043826241520629375
-0.1288859699453366       -0.0554100147814756      -0.05223243257944678
-0.11914890125904641      -0.06041752868500448     -0.06755258363940403
-0.12419658350907965      -0.051844385527717106    -0.0655550023562325
-0.12879862542337037      -0.043965237575825315    -0.062354326024355214
-0.12410358480091072      -0.04406715306159751     -0.07117918418055175
-0.12765501526474968      -0.05169755886111829     -0.0586655732568748
-0.12425571233913552      -0.05870640567504983     -0.059364685494075455
-0.12445761720690438      -0.06447576597662777     -0.05256678724163002
-0.11822596760459704      -0.03580251543001728     -0.08456293793879296
-0.11916325174533628      -0.04402074089948925     -0.07919838258536378
-0.12378634773234637      -0.035643486056880315    -0.076266454072545
-0.09406835613583343      -0.10762754719123667     -0.044469601521715245
-0.0865098240498889       -0.11384648759257739     -0.04432964702871425
-0.09187745293075152      -0.11265309539833991     -0.03574777951327993
-0.09921841665010306      -0.10627359624764536     -0.0356611628811935
-0.0806773024069806       -0.11453959513028235     -0.05274413733983723
-0.13666607725964622      -0.026901019627231654    -0.05485260677010451
-0.13277205800494635      -0.026861616741077305    -0.06371910356546653
-0.13311148956949043      -0.03577494166156858     -0.05840868851209398
-0.13674921656224778      -0.03527514729582148     -0.049652852414232625
-0.1281025550491294       -0.026876208355337158    -0.0726463682115306
-0.12672708296101406      -0.018021574775956797    -0.077624476080595
-0.12271455628162872      -0.027005736137690965    -0.08137516754062257
-0.11686188981247157      -0.02697291022659266     -0.08958711304292563
-0.12480407479945872      -0.008993041927103422    -0.0821776010257569
-0.13014318949885703      -0.008965678747785337    -0.0734333495876098
-0.04215171745948884      -0.13926447629922417     -0.035195572964767316
-0.04495464250916105      -0.14011241147063466     -0.02752602893185109
-0.009094406590783153     -0.1301054723944878      -0.07348433725474225
-0.00911698246821938      -0.1348149839192722      -0.06443516696277404
-0.018129926850584687     -0.13609731948194884     -0.059656645750668924
-0.00916116704966585      -0.138884566708255       -0.055111161741959264
-2.5222764177774785E-17   -0.13730633297881403     -0.05964056026279787
-0.03593023250685741      -0.1366828900931959      -0.04936492629159395
-0.04446114940026887      -0.13260850686579465     -0.05336928049759969
-2.441634870915428E-17    -0.1329164116334271      -0.0688717326298974
-0.11493040189541924      -0.017992709762051085    -0.0942197172335813
-0.11048483971154587      -0.02693073299011633     -0.0973546394093732
-0.07673806498291653      -0.044335436262701665    -0.12064712377041405
-0.07397782520634097      -0.035752902492465904    -0.1251363310198293
-0.0826578334444538       -0.03583425907917888     -0.11955617276625757
-0.07981858428873478      -0.02702182937631415     -0.1237291571914216
-0.07098210296072674      -0.027082605935977024    -0.12898900540352026
-0.07645803997851736      -0.017987610713597404    -0.12743902064697266
-0.06739616459936446      -0.01826298313555503     -0.1324171833422151
-0.10346291420771013      -0.02698984997074283     -0.10477148172191138
-0.09600819234679402      -0.026955078089852542    -0.1116509774586455
-0.08809427977542117      -0.026974332427623125    -0.11799098804965534
-0.0850107891999629       -0.017964509172456473    -0.12190378226204553
-0.1081894970729171       -0.01798432837071636     -0.10189056215451714
-0.09321053433907212      -0.01800547856425804     -0.11574838672697217
-0.03579882399555474      -0.0652753629290134      -0.12987556042235537
-0.04381610531468621      -0.05072066123811806     -0.13385683934196416
-0.03598110700845152      -0.056361206145992736    -0.13393604585851893
-0.02737220139770642      -0.06166162187224247     -0.13363643582020585
-0.035762562992099005     -0.04758729512815995     -0.13735566399177562
-0.042942644213480576     -0.0436888169102945      -0.1365917515259732
-0.03657545208807577      -0.03768101830022275     -0.14018725749657548
-0.05956941939119632      -0.04453037641783583     -0.12991774262771666
-0.05051051424428847      -0.04430268198064234     -0.1337761201414498
-0.06544927051331444      -0.035801267086991995    -0.12978733476052606
-0.056252031600370185     -0.03582678372441469     -0.13402328345774467
-0.04676131119709873      -0.03601066696887133     -0.13757434949722688
-0.04235581543170827      -0.0275342899106747      -0.14091819534123332
-0.06208106944887933      -0.027312910550088807    -0.1334542458424095
-0.05846118019041108      -0.01842282536688868     -0.1365759126502379
-0.052583113381653585     -0.027254198949240298    -0.13748568953431992
-0.12876252193333118      -0.03564991549350222     -0.06752322911913029
-0.12837522442886082      -0.07217953583846676     -0.026832934222390074
-0.14019092885667123      -0.026696657115061667    -0.045209312814779495
-0.13950334546471418      -0.034828615952350025    -0.041663822616225726
-0.13697768010025435      -0.04245970157209003     -0.042946232625941
-0.13606408012422072      -0.01799289116831319     -0.059773840159010085
-0.13178398762737964      -0.01798637026297059     -0.06869906178245803
-0.13240660961496412      -0.04613111582273996     -0.05244520839141978
-0.13195714830903973      -0.06837284791282262     -0.01795980730509461
-0.12494992801504116      -0.0819546606867054      -0.009002170891680848
-0.13025142528488923      -0.07323671991262481     -0.009002170165836099
-0.1279063832034486       -0.07778159387086953     0
-0.09379140446506713      -0.1152851300342821      -0.01796110356990501
-0.09820534326972817      -0.11262664622026561     -0.009002172762727408
-0.10566231821050531      -0.1056623182105052      -0.009002167559197555
-0.10217813376635675      -0.10940606058433444     0
-0.11262664622026573      -0.09820534326972803     -0.009002172762727408
-0.10940606058433451      -0.10217813376635665     0
-0.027008442445703922     -0.13674359739959496     -0.05460606749139324
-0.035513606065503196     -0.13980780864537812     -0.04003311661614171
-0.027068445294869826     -0.1401099608339672      -0.04523923235890309
-0.018109218474864717     -0.13984723543308747     -0.05024835268894126
-0.09679001909338207      -0.11100348256973488     -0.026832984576697933
-0.09029048883733518      -0.11906585819542237     -0.00900216850001344
-0.07218098806286406      -0.12837441418998907     -0.02683290412247273
-0.07721983947911482      -0.12698261753749246     -0.017961103366627
-0.06837427876440064      -0.13195627913293836     -0.017960746110284354
-0.08195466068670543      -0.12494992801504112     -0.00900217089168088
-0.08570542459611447      -0.12141692229638286     -0.01796110171659499
-0.08898923106912691      -0.11734989541829603     -0.026832979689936115
-0.08077354040745928      -0.12314916257226889     -0.02683298208909028
-0.06349638631514769      -0.132877809629803       -0.026866087041163327
-0.05421761403041581      -0.1369132634741246      -0.026931368582264848
-0.05961894457496184      -0.13611470788706886     -0.018123403228575728
-0.06417731717778045      -0.1349456263272948      -0.009002216115862787
-0.04972442341436477      -0.14000151550920797     -0.018361573223282978
-0.05526417562643342      -0.1388059201567538      -0.009427482260265315
-0.05964056026279793      -0.13730633297881398     0
-0.07323671991262486      -0.13025142528488923     -0.009002170165836083
-0.07778159387086962      -0.12790638320344858     0
-0.03598840180394712      -0.14203744769515356     -0.03066412216001271
-2.5911638014432463E-17   -0.1410563874823509      -0.05013144825300509
-0.026760910757322634     -0.14293454443887638     -0.03554799096277443
-0.03829855453674185      -0.14330369763563333     -0.020183185188448152
-0.05013144825300514      -0.14105638748235086     0
-0.045291586009776806     -0.14230514580461615     -0.010392675990616435
-0.03615063783922217      -0.1449708934835586      -0.009309211910581656
-0.029847370922090784     -0.1458988986763973      -0.015255681369689673
-0.01802059609389167      -0.10822812678611995     -0.10184311802369549
-0.026992297882009533     -0.10348460724777526     -0.10474942442716606
-0.02703520726821115      -0.0959578440394998      -0.11167488408436295
-0.01808673593211706      -0.10095110665144724     -0.10904968614888351
-0.018242437754816827     -0.0931016809190676      -0.1157988794194735
-0.009168112549793916     -0.09788285532450726     -0.11289367717368363
-0.017991189769628144     -0.08503346910487022     -0.12188402775862109
-0.00908231617822287      -0.08998354235790901     -0.11929192612059375
-1.7354544274743325E-17   -0.09447373880548651     -0.11612383124186795
-0.009009903528620319     -0.08166978930627138     -0.12513575489473105
-0.009115499402873116     -0.10546102500506925     -0.1058535302931196
-0.009022524906247869     -0.11246997351059959     -0.09838286996647928
-2.1331601735262157E-17   -0.116123831241868       -0.09447373880548647
-2.0097567285288994E-17   -0.10940606058433447     -0.10217813376635669
-0.009160041692340627     -0.07277379755354112     -0.13049964760807134
-0.017988460728343664     -0.07643449934369498     -0.12745302111250068
-0.02704833920876947      -0.07106940332176347     -0.12894811847225948
-0.018143244131641284     -0.06735085948047037     -0.13245668884439776
-0.018043998395056143     -0.05806614615808844     -0.13679483466953982
-2.2466213966826058E-17   -0.12230037255077907     -0.08632903171662329
-2.349602141709271E-17    -0.12790638320344858     -0.07778159387086955
-0.14278139786040686      -0.028655958557531076    -0.034675617718755485
-0.1429419636644026       -0.01817193213413397     -0.04058898750002321
-1.4288246994980978E-17   -0.07778159387086961     -0.12790638320344858
-0.008995763221106713     -0.06374848682023444     -0.1351491645264601
-1.2651532037540424E-17   -0.06887173262989739     -0.1329164116334271
-0.11906585819542245      -0.09029048883733509     -0.00900216850001344
-0.11612383124186801      -0.09447373880548644     0
-0.1223003725507791       -0.08632903171662325     0
-0.1372803789325051       -0.048328505453445615    -0.03505057946431254
-0.13700715050275547      -0.05403030586201644     -0.026830146469452403
-0.13631488609293738      -0.05921000749250207     -0.017958753915775078
-0.14051156775043078      -0.04432447558202816     -0.026493965212747942
-0.14003711897939694      -0.04977097496075393     -0.01795954786196563
-0.13901075294645787      -0.054818727990617475    -0.009000423698335635
-0.14242754034556707      -0.04520446988924102     -0.009002313766169895
-0.1451803679406809       -0.03537948753663316     -0.009002367813733387
-0.14324299957499623      -0.039698838929458455    -0.017763312202698917
-0.14332571002171773      -0.03440217965161989     -0.026159527556669747
-0.13479098402609974      -0.008963475148070159    -0.06450687357596599
-0.13291641163342707      1.627756580610285E-17    -0.06887173262989739
-0.13891991927855774      -0.008736268458776028    -0.055091048647263996
-0.13730633297881398      1.6815176118516523E-17   -0.059640560262797855
-0.13990741195784165      -0.018012506244987774    -0.05011542375390112
-0.14228514655150354      -0.008343842683710034    -0.045775619712753936
-0.11887246713632312      -0.008997787019243362    -0.09054538301691657
-0.12109699816108982      -0.01798082709948568     -0.08615275325369129
-0.1223003725507791       1.4977475977884043E-17   -0.0863290317166233
-0.1279063832034486       1.5664014278061813E-17   -0.07778159387086958
-0.14105638748235083      1.727442534295498E-17    -0.050131448253005105
-0.11242608782018834      -0.008991000490534523    -0.09843590141623389
-0.10094542845564498      -0.017970317794129196    -0.10907418646171177
-0.10543588970477233      -0.008997766323005547    -0.1058886366111099
-0.11612383124186801      1.4221067823508103E-17   -0.09447373880548651
-0.10940606058433443      1.3398378190192655E-17   -0.1021781337663567
-0.10217813376635668      1.2513212445981877E-17   -0.10940606058433447
-0.018065917378544686     -0.14293756300434252     -0.04065176148276007
-0.017703234991926498     -0.1454888924603323      -0.030490451644514804
-0.009117513343601785     -0.1423209370921918      -0.045516061073313865
-0.06347155645580531      -0.00908231252127794     -0.13527366011291098
-0.059640560262797813     7.303862122519018E-18    -0.13730633297881403
-0.06887173262989739      8.434354691693615E-18    -0.1329164116334271
-0.04864164127485302      -0.018808315009618094    -0.14032222924607313
-0.05013144825300504      6.139331763966381E-18    -0.14105638748235091
-0.05429059627121333      -0.009101751855326246    -0.1392112756556745
-0.07270653621064326      -0.009084408714588956    -0.13054241881686093
-0.07778159387086957      9.52549799665398E-18     -0.12790638320344858
-0.08162786122121804      -0.009046186091979427    -0.12516049212766325
-0.08632903171662328      1.0572257236525302E-17   -0.12230037255077907
-0.089985916875881        -0.009059099581880883    -0.11929190030665372
-0.09795059602598913      -0.009025910036765386    -0.11284637205582512
-0.09447373880548647      1.156969618316221E-17    -0.11612383124186798
-0.027203674594023623     -0.05297913774269747     -0.13734358759193227
-0.027616560664421544     -0.04385302266516349     -0.14044332657765193
-0.018331756576164968     -0.048994030256349214    -0.14026268819637022
-0.03900481010433777      -0.018629201273733936    -0.14332364650896678
-0.03228958067431346      -0.027578983354812393    -0.14355094098260726
-0.018477389824681587     -0.03925960935791973     -0.14327372103191258
-0.027174546663731695     -0.03562776856971197     -0.1428366063737294
-0.009233924687990254     -0.054112157689864944    -0.13927203245807726
-0.00917198984235637      -0.045051143627585964    -0.14246529072085715
-0.00980791341420224      -0.03418725733480632     -0.14541363852948339
-0.04457841956209837      -0.009188948728491592    -0.1426128245657125
-0.03485494051038539      -0.009401310056056315    -0.14528192761402706
-0.14034772463254552      -0.03880092178621938     -0.034743267822800815
-0.13494572927614354      -0.06417736613809945     -0.009000323644520244
-0.13291641163342713      -0.06887173262989736     0
-0.13730633297881403      -0.059640560262797834    0
-0.14105638748235086      -0.05013144825300507     0
-0.06887173262989747      -0.13291641163342705     0
-0.09447373880548654      -0.11612383124186793     0
-0.08632903171662333      -0.12230037255077905     0
-0.02690843661104254      -0.14519963199368546     -0.02455794999685084
-2.6479664705397694E-17   -0.14414858076540313     -0.040388543095169385
-0.008992959316284356     -0.14512893002613605     -0.035592279390403804
-0.01694061356629459      -0.14731796086583784     -0.020506682284781058
-0.008767134531552204     -0.14722385403987162     -0.025658607790607867
-0.007281171607175506     -0.14870905972739598     -0.015578513889991248
-2.6924237484208776E-17   -0.14656872225229609     -0.030457326032380144
-0.02329696116739385      -0.14704120520245073     -0.01569157649746266
-0.01595656678800277      -0.14852844114921332     -0.009735509546227714
-0.04038854309516941      -0.1441485807654031      0
-0.030457326032380223     -0.14656872225229609     0
-0.02639595881145926      -0.14715423117414828     -0.007679557667540808
-1.8769818668972824E-17   -0.10217813376635672     -0.10940606058433448
-1.5858385854787957E-17   -0.08632903171662329     -0.12230037255077905
-0.1453649734223845       -0.017333620272929853    -0.03128354375935265
-0.1449712487555697       -0.008099577158819347    -0.03643931783251546
-0.14414858076540316      -0.04038854309516937     0
-0.1465687222522961       -0.03045732603238013     0
-0.14733404551590082      -0.025014049607071112    -0.008778744453135475
-0.14571973680228298      -0.02954593754720587     -0.017403616886440577
-0.14561043515782562      -0.02448077770115368     -0.02466541498323851
-0.1474801200287366       -0.019642035561082166    -0.016549762394869546
-0.14695030575629509      -0.016192028839689617    -0.02352691735408731
-0.1441485807654031       1.7653109803598467E-17   -0.04038854309516939
-1.0955793183778531E-17   -0.05964056026279785     -0.137306332978814
-5.594920025421255E-18    -0.030457326032380147    -0.14656872225229609
-7.419255003558617E-18    -0.04038854309516937     -0.1441485807654031
-9.208997645949575E-18    -0.05013144825300507     -0.1410563874823509
-0.030457326032380088     3.729946683614163E-18    -0.1465687222522961
-0.024082738417258755     -0.009749134110935967    -0.14742817266185212
-0.04038854309516935      4.946170002372408E-18    -0.14414858076540313
-0.020384143384605577     2.496337594931791E-18    -0.14830563741358677