% Model:              FOC_SAT_meshAnsys_001.mph
% Version:            COMSOL 6.0.0.405
% Date:               Nov 14 2023, 18:26
% Dimension:          3
% Nodes:              21545
% Elements:           41120
% Expressions:        1
% Description:        Material settings
% Length unit:        m
% Coordinates
-0.938769519329071        0.2413729876279831       1.3291093111038208
-0.9431777000427246       0.24094133079051971      1.3265641927719116
-0.9401496648788452       0.23250000178813934      1.3283123970031738
-0.93693608045578         0.23499253392219543      1.3301677703857422
-0.9442105293273926       0.25                     1.3259679079055786
-0.9396052360534668       0.2480621188879013       1.3286267518997192
-0.9337225556373596       0.23748506605625153      1.3320231437683105
-0.9343612790107727       0.24180464446544647      1.3316543102264404
-0.9350000023841858       0.2461242377758026       1.3312855958938599
-0.9325554370880127       0.2304903268814087       1.3326969146728516
-0.9353326559066772       0.22525125741958618      1.3310935497283936
-0.9290550947189331       0.21968911588191986      1.334717869758606
-0.9297782182693481       0.2357293963432312       1.3343003988265991
-0.9274445176124573       0.22683142125606537      1.335647702217102
-0.9373376369476318       0.25403428077697754      1.329935908317566
-0.9431777000427246       0.2590586543083191       1.3265641927719116
-0.9306378960609436       0.2423696368932724       1.3338040113449097
-0.9314975142478943       0.2490098774433136       1.3333077430725098
-0.921744704246521        0.2161926031112671       1.338938593864441
-0.9213055968284607       0.22505055367946625      1.3391920328140259
-0.9138996601104736       0.2150000035762787       1.3434678316116333
-0.9148993492126465       0.2244216501712799       1.342890739440918
-0.9060546159744263       0.2161926031112671       1.3479971885681152
-0.9083992838859558       0.22499454021453857      1.3466434478759766
-0.9401496648788452       0.26750001311302185      1.3283123970031738
-0.9340723752975464       0.2596977651119232       1.3318212032318115
-0.9258339405059814       0.23397372663021088      1.3365776538848877
-0.9269144535064697       0.24293462932109833      1.335953712463379
-0.9208664894104004       0.2339085191488266       1.3394455909729004
-0.9279950261116028       0.251895546913147        1.3353298902511597
-0.8987442255020142       0.21968911588191986      1.3522179126739502
-0.9021665453910828       0.22671937942504883      1.350242018699646
-0.9158990383148193       0.23384331166744232      1.342313528060913
-0.9055889248847961       0.2337496429681778       1.3482661247253418
-0.9107440114021301       0.23379647731781006      1.3452898263931274
-0.8948877453804016       0.27085545659065247      1.3544443845748901
-0.887649655342102        0.26750001311302185      1.3586232662200928
-0.8924666047096252       0.2747487425804138       1.3558422327041626
-0.8910329937934875       0.2658195495605469       1.3566699028015137
-0.8987442255020142       0.28031089901924133      1.3522179126739502
-0.8994727730751038       0.27504807710647583      1.3517972230911255
-0.9353326559066772       0.2747487425804138       1.3310935497283936
-0.9287761449813843       0.2644631564617157       1.334878921508789
-0.9290550947189331       0.28031089901924133      1.334717869758606
-0.9215430617332458       0.2440430372953415       1.3390549421310425
-0.9227496981620789       0.26838523149490356      1.3383582830429077
-0.916171669960022        0.24515144526958466      1.342156171798706
-0.9222196340560913       0.2541775703430176       1.3386642932891846
-0.897754430770874        0.2322344332933426       1.352789282798767
-0.8924666047096252       0.22525125741958618      1.3558422327041626
-0.887649655342102        0.23250000178813934      1.3586232662200928
-0.8940725922584534       0.23859277367591858      1.3549150228500366
-0.9030422568321228       0.2392175942659378       1.3497363328933716
-0.90960693359375         0.24218451976776123      1.3459463119506836
-0.9002013802528381       0.2697852849960327       1.3513765335083008
-0.8944163918495178       0.2641390562057495       1.3547165393829346
-0.897308886051178        0.2669621706008911       1.3530465364456177
-0.8846215605735779       0.2590586543083191       1.3603715896606445
-0.8898944854736328       0.2592593729496002       1.3573272228240967
-0.8835887312889099       0.25                     1.3609678745269775
-0.8846215605735779       0.24094133079051971      1.3603715896606445
-0.8914142847061157       0.24533730745315552      1.356449842453003
-0.8951674103736877       0.25946006178855896      1.3542829751968384
-0.8897535800933838       0.2523905336856842       1.3574086427688599
-0.9050148129463196       0.27586719393730164      1.348597526550293
-0.9060546159744263       0.2838073968887329       1.3479971885681152
-0.9138996601104736       0.2849999964237213       1.3434678316116333
-0.921744704246521        0.2838073968887329       1.338938593864441
-0.9169206023216248       0.2725357711315155       1.3417236804962158
-0.9039750695228577       0.26792699098587036      1.3491978645324707
-0.910824179649353        0.27553436160087585      1.3452434539794922
-0.9164443016052246       0.2564595937728882       1.3419986963272095
-0.9004955887794495       0.24468554556369781      1.351206660270691
-0.8982070088386536       0.24973329901695251      1.3525280952453613
-0.9120965003967285       0.2612641453742981       1.3445088863372803
-0.9084699153900146       0.2505725622177124       1.3466026782989502
-0.8995712399482727       0.26369351148605347      1.3517403602600098
-0.8959183692932129       0.254781037569046        1.3538494110107422
-0.9077487587928772       0.266068696975708        1.347019076347351
-0.9051517248153687       0.2554987072944641       1.3485184907913208
-0.9018335342407227       0.2604248821735382       1.3504341840744019
-0.8510546088218689       0.2161926031112671       1.2527344226837158
-0.8549831509590149       0.2161926031112671       1.2595388889312744
-0.8588996529579163       0.2150000035762787       1.2482050657272339
-0.8628281950950623       0.2150000035762787       1.2550095319747925
-0.8437442183494568       0.21968911588191986      1.2569550275802612
-0.8476727604866028       0.21968911588191986      1.2637596130371094
-0.8667446970939636       0.2161926031112671       1.243675708770752
-0.8706732392311096       0.2161926031112671       1.2504801750183105
-0.8740550875663757       0.21968911588191986      1.2394551038742065
-0.8779836297035217       0.21968911588191986      1.2462595701217651
-0.8374665975570679       0.22525125741958618      1.2605794668197632
-0.8413951992988586       0.22525125741958618      1.2673839330673218
-0.8326496481895447       0.23250000178813934      1.2633605003356934
-0.8365781903266907       0.23250000178813934      1.270164966583252
-0.8803326487541199       0.22525125741958618      1.2358306646347046
-0.8842612504959106       0.22525125741958618      1.2426352500915527
-0.8851496577262878       0.23250000178813934      1.2330496311187744
-0.8890781998634338       0.23250000178813934      1.239854097366333
-0.8296215534210205       0.24094133079051971      1.2651088237762451
-0.8335501551628113       0.24094133079051971      1.2719132900238037
-0.8285887837409973       0.25                     1.2657051086425781
-0.8325173258781433       0.25                     1.2725095748901367
-0.8881776928901672       0.24094133079051971      1.2313014268875122
-0.892106294631958        0.24094133079051971      1.2381058931350708
-0.8892105221748352       0.25                     1.2307050228118896
-0.893139123916626        0.25                     1.2375096082687378
-0.8296215534210205       0.2590586543083191       1.2651088237762451
-0.8335501551628113       0.2590586543083191       1.2719132900238037
-0.8326496481895447       0.26750001311302185      1.2633605003356934
-0.8365781903266907       0.26750001311302185      1.270164966583252
-0.8881776928901672       0.2590586543083191       1.2313014268875122
-0.892106294631958        0.2590586543083191       1.2381058931350708
-0.8851496577262878       0.26750001311302185      1.2330496311187744
-0.8890781998634338       0.26750001311302185      1.239854097366333
-0.8803326487541199       0.2747487425804138       1.2358306646347046
-0.8842612504959106       0.2747487425804138       1.2426352500915527
-0.8740550875663757       0.28031089901924133      1.2394551038742065
-0.8779836297035217       0.28031089901924133      1.2462595701217651
-0.8374665975570679       0.2747487425804138       1.2605794668197632
-0.8413951992988586       0.2747487425804138       1.2673839330673218
-0.8437442183494568       0.28031089901924133      1.2569550275802612
-0.8476727604866028       0.28031089901924133      1.2637596130371094
-0.8510546088218689       0.2838073968887329       1.2527344226837158
-0.8549831509590149       0.2838073968887329       1.2595388889312744
-0.8588996529579163       0.2849999964237213       1.2482050657272339
-0.8667446970939636       0.2838073968887329       1.243675708770752
-0.8706732392311096       0.2838073968887329       1.2504801750183105
-0.8628281950950623       0.2849999964237213       1.2550095319747925
-0.8746018409729004       0.2161926031112671       1.2572847604751587
-0.866756796836853        0.2150000035762787       1.261813998222351
-0.8589117527008057       0.2161926031112671       1.266343355178833
-0.8516013622283936       0.21968911588191986      1.270564079284668
-0.8453237414360046       0.22525125741958618      1.2741883993148804
-0.8819122314453125       0.21968911588191986      1.2530640363693237
-0.8881897926330566       0.22525125741958618      1.2494397163391113
-0.8405067920684814       0.23250000178813934      1.2769695520401
-0.8374786972999573       0.24094133079051971      1.2787177562713623
-0.8930068016052246       0.23250000178813934      1.2466585636138916
-0.896034836769104        0.24094133079051971      1.2449103593826294
-0.8364458680152893       0.25                     1.2793140411376953
-0.8374786972999573       0.2590586543083191       1.2787177562713623
-0.897067666053772        0.25                     1.2443140745162964
-0.896034836769104        0.2590586543083191       1.2449103593826294
-0.8405067920684814       0.26750001311302185      1.2769695520401
-0.8453237414360046       0.2747487425804138       1.2741883993148804
-0.8930068016052246       0.26750001311302185      1.2466585636138916
-0.8881897926330566       0.2747487425804138       1.2494397163391113
-0.8819122314453125       0.28031089901924133      1.2530640363693237
-0.8746018409729004       0.2838073968887329       1.2572847604751587
-0.8516013622283936       0.28031089901924133      1.270564079284668
-0.8589117527008057       0.2838073968887329       1.266343355178833
-0.866756796836853        0.2849999964237213       1.261813998222351
-0.8785303831100464       0.2161926031112671       1.2640892267227173
-0.870685338973999        0.2150000035762787       1.2686185836791992
-0.8858407735824585       0.21968911588191986      1.2598685026168823
-0.8628402948379517       0.2161926031112671       1.2731478214263916
-0.8555299043655396       0.21968911588191986      1.2773685455322266
-0.8492523431777954       0.22525125741958618      1.280992865562439
-0.8444353342056274       0.23250000178813934      1.2837740182876587
-0.8921183943748474       0.22525125741958618      1.25624418258667
-0.8969353437423706       0.23250000178813934      1.2534631490707397
-0.841407299041748        0.24094133079051971      1.285522222518921
-0.8403744697570801       0.25                     1.286118507385254
-0.8999634385108948       0.24094133079051971      1.251714825630188
-0.9009962677955627       0.25                     1.251118540763855
-0.841407299041748        0.2590586543083191       1.285522222518921
-0.8444353342056274       0.26750001311302185      1.2837740182876587
-0.8999634385108948       0.2590586543083191       1.251714825630188
-0.8969353437423706       0.26750001311302185      1.2534631490707397
-0.8492523431777954       0.2747487425804138       1.280992865562439
-0.8555299043655396       0.28031089901924133      1.2773685455322266
-0.8921183943748474       0.2747487425804138       1.25624418258667
-0.8858407735824585       0.28031089901924133      1.2598685026168823
-0.8785303831100464       0.2838073968887329       1.2640892267227173
-0.8628402948379517       0.2838073968887329       1.2731478214263916
-0.870685338973999        0.2849999964237213       1.2686185836791992
-0.8746139407157898       0.2150000035762787       1.2754230499267578
-0.8667688965797424       0.2161926031112671       1.2799524068832397
-0.8824589848518372       0.2161926031112671       1.2708936929702759
-0.8897693753242493       0.21968911588191986      1.266672968864441
-0.8960469365119934       0.22525125741958618      1.2630486488342285
-0.8594585061073303       0.21968911588191986      1.2841730117797852
-0.8531808853149414       0.22525125741958618      1.2877973318099976
-0.8483639359474182       0.23250000178813934      1.2905784845352173
-0.845335841178894        0.24094133079051971      1.2923266887664795
-0.9008639454841614       0.23250000178813934      1.2602676153182983
-0.9038919806480408       0.24094133079051971      1.2585192918777466
-0.8443030118942261       0.25                     1.2929229736328125
-0.845335841178894        0.2590586543083191       1.2923266887664795
-0.9049248099327087       0.25                     1.2579230070114136
-0.9038919806480408       0.2590586543083191       1.2585192918777466
-0.8483639359474182       0.26750001311302185      1.2905784845352173
-0.8531808853149414       0.2747487425804138       1.2877973318099976
-0.9008639454841614       0.26750001311302185      1.2602676153182983
-0.8960469365119934       0.2747487425804138       1.2630486488342285
-0.8594585061073303       0.28031089901924133      1.2841730117797852
-0.8667688965797424       0.2838073968887329       1.2799524068832397
-0.8897693753242493       0.28031089901924133      1.266672968864441
-0.8824589848518372       0.2838073968887329       1.2708936929702759
-0.8746139407157898       0.2849999964237213       1.2754230499267578
-0.8706974387168884       0.2161926031112671       1.2867568731307983
-0.8785424828529358       0.2150000035762787       1.2822275161743164
-0.8633870482444763       0.21968911588191986      1.2909774780273438
-0.8863875269889832       0.2161926031112671       1.2776981592178345
-0.8936979174613953       0.21968911588191986      1.273477554321289
-0.8999755382537842       0.22525125741958618      1.269853115081787
-0.9047924876213074       0.23250000178813934      1.267072081565857
-0.8571094870567322       0.22525125741958618      1.2946019172668457
-0.8522924780845642       0.23250000178813934      1.2973829507827759
-0.8492644429206848       0.24094133079051971      1.299131155014038
-0.8482316136360168       0.25                     1.2997275590896606
-0.9078205823898315       0.24094133079051971      1.2653237581253052
-0.9088534116744995       0.25                     1.2647274732589722
-0.8492644429206848       0.2590586543083191       1.299131155014038
-0.8522924780845642       0.26750001311302185      1.2973829507827759
-0.9078205823898315       0.2590586543083191       1.2653237581253052
-0.9047924876213074       0.26750001311302185      1.267072081565857
-0.8571094870567322       0.2747487425804138       1.2946019172668457
-0.8633870482444763       0.28031089901924133      1.2909774780273438
-0.8999755382537842       0.2747487425804138       1.269853115081787
-0.8936979174613953       0.28031089901924133      1.273477554321289
-0.8706974387168884       0.2838073968887329       1.2867568731307983
-0.8863875269889832       0.2838073968887329       1.2776981592178345
-0.8785424828529358       0.2849999964237213       1.2822275161743164
-0.8903161287307739       0.2161926031112671       1.284502625465393
-0.8824710845947266       0.2150000035762787       1.289031982421875
-0.8746260404586792       0.2161926031112671       1.293561339378357
-0.8673156499862671       0.21968911588191986      1.2977819442749023
-0.8610380291938782       0.22525125741958618      1.3014063835144043
-0.897626519203186        0.21968911588191986      1.2802820205688477
-0.9039040803909302       0.22525125741958618      1.2766575813293457
-0.9087210893630981       0.23250000178813934      1.2738765478134155
-0.9117491245269775       0.24094133079051971      1.2721283435821533
-0.856221079826355        0.23250000178813934      1.3041874170303345
-0.8531929850578308       0.24094133079051971      1.3059357404708862
-0.8521601557731628       0.25                     1.3065320253372192
-0.8531929850578308       0.2590586543083191       1.3059357404708862
-0.9127819538116455       0.25                     1.2715319395065308
-0.9117491245269775       0.2590586543083191       1.2721283435821533
-0.856221079826355        0.26750001311302185      1.3041874170303345
-0.8610380291938782       0.2747487425804138       1.3014063835144043
-0.9087210893630981       0.26750001311302185      1.2738765478134155
-0.9039040803909302       0.2747487425804138       1.2766575813293457
-0.8673156499862671       0.28031089901924133      1.2977819442749023
-0.8746260404586792       0.2838073968887329       1.293561339378357
-0.897626519203186        0.28031089901924133      1.2802820205688477
-0.8903161287307739       0.2838073968887329       1.284502625465393
-0.8824710845947266       0.2849999964237213       1.289031982421875
-0.8942446708679199       0.2161926031112671       1.2913070917129517
-0.901555061340332        0.21968911588191986      1.2870864868164062
-0.8863996267318726       0.2150000035762787       1.2958364486694336
-0.8785545825958252       0.2161926031112671       1.3003658056259155
-0.8712441921234131       0.21968911588191986      1.3045865297317505
-0.864966630935669        0.22525125741958618      1.308210849761963
-0.860149621963501        0.23250000178813934      1.310991883277893
-0.907832682132721        0.22525125741958618      1.2834621667861938
-0.9126496315002441       0.23250000178813934      1.2806810140609741
-0.9156777262687683       0.24094133079051971      1.278932809829712
-0.9167105555534363       0.25                     1.278336524963379
-0.8571215867996216       0.24094133079051971      1.3127402067184448
-0.8560887575149536       0.25                     1.3133364915847778
-0.8571215867996216       0.2590586543083191       1.3127402067184448
-0.860149621963501        0.26750001311302185      1.310991883277893
-0.9156777262687683       0.2590586543083191       1.278932809829712
-0.9126496315002441       0.26750001311302185      1.2806810140609741
-0.864966630935669        0.2747487425804138       1.308210849761963
-0.8712441921234131       0.28031089901924133      1.3045865297317505
-0.907832682132721        0.2747487425804138       1.2834621667861938
-0.901555061340332        0.28031089901924133      1.2870864868164062
-0.8785545825958252       0.2838073968887329       1.3003658056259155
-0.8942446708679199       0.2838073968887329       1.2913070917129517
-0.8863996267318726       0.2849999964237213       1.2958364486694336
-0.9117612242698669       0.22525125741958618      1.2902666330337524
-0.9054836630821228       0.21968911588191986      1.2938909530639648
-0.8981732726097107       0.2161926031112671       1.2981116771697998
-0.8903282284736633       0.2150000035762787       1.3026409149169922
-0.882483184337616        0.2161926031112671       1.3071702718734741
-0.8751727938652039       0.21968911588191986      1.311390995979309
-0.8688951730728149       0.22525125741958618      1.3150153160095215
-0.8640782237052917       0.23250000178813934      1.3177963495254517
-0.8610501289367676       0.24094133079051971      1.3195446729660034
-0.9165782332420349       0.23250000178813934      1.2874854803085327
-0.9196062684059143       0.24094133079051971      1.2857372760772705
-0.9206390976905823       0.25                     1.2851409912109375
-0.9196062684059143       0.2590586543083191       1.2857372760772705
-0.8600172996520996       0.25                     1.3201409578323364
-0.8610501289367676       0.2590586543083191       1.3195446729660034
-0.8640782237052917       0.26750001311302185      1.3177963495254517
-0.8688951730728149       0.2747487425804138       1.3150153160095215
-0.9165782332420349       0.26750001311302185      1.2874854803085327
-0.9117612242698669       0.2747487425804138       1.2902666330337524
-0.8751727938652039       0.28031089901924133      1.311390995979309
-0.882483184337616        0.2838073968887329       1.3071702718734741
-0.9054836630821228       0.28031089901924133      1.2938909530639648
-0.8981732726097107       0.2838073968887329       1.2981116771697998
-0.8903282284736633       0.2849999964237213       1.3026409149169922
-0.9156898260116577       0.22525125741958618      1.297071099281311
-0.9205067753791809       0.23250000178813934      1.2942899465560913
-0.9094122052192688       0.21968911588191986      1.3006954193115234
-0.9021018147468567       0.2161926031112671       1.3049161434173584
-0.8942567706108093       0.2150000035762787       1.3094455003738403
-0.886411726474762        0.2161926031112671       1.3139747381210327
-0.8791013360023499       0.21968911588191986      1.3181954622268677
-0.8728237748146057       0.22525125741958618      1.32181978225708
-0.8680067658424377       0.23250000178813934      1.3246009349822998
-0.8649787306785583       0.24094133079051971      1.326349139213562
-0.8639459013938904       0.25                     1.326945424079895
-0.9235348701477051       0.24094133079051971      1.292541742324829
-0.924567699432373        0.25                     1.291945457458496
-0.9235348701477051       0.2590586543083191       1.292541742324829
-0.9205067753791809       0.26750001311302185      1.2942899465560913
-0.8649787306785583       0.2590586543083191       1.326349139213562
-0.8680067658424377       0.26750001311302185      1.3246009349822998
-0.8728237748146057       0.2747487425804138       1.32181978225708
-0.8791013360023499       0.28031089901924133      1.3181954622268677
-0.9156898260116577       0.2747487425804138       1.297071099281311
-0.9094122052192688       0.28031089901924133      1.3006954193115234
-0.886411726474762        0.2838073968887329       1.3139747381210327
-0.9021018147468567       0.2838073968887329       1.3049161434173584
-0.8942567706108093       0.2849999964237213       1.3094455003738403
-0.9244353771209717       0.23250000178813934      1.3010945320129395
-0.9196183681488037       0.22525125741958618      1.3038755655288696
-0.9235469698905945       0.22525125741958618      1.3106800317764282
-0.9283639192581177       0.23250000178813934      1.307898998260498
-0.9274634122848511       0.24094133079051971      1.2993462085723877
-0.9133408069610596       0.21968911588191986      1.307499885559082
-0.9172693490982056       0.21968911588191986      1.3143044710159302
-0.9060304164886475       0.2161926031112671       1.311720609664917
-0.9322925209999084       0.23250000178813934      1.3147034645080566
-0.9274755120277405       0.22525125741958618      1.3174844980239868
-0.9211979508399963       0.21968911588191986      1.3211089372634888
-0.8981853723526001       0.2150000035762787       1.316249966621399
-0.8903403282165527       0.2161926031112671       1.3207793235778809
-0.8830299377441406       0.21968911588191986      1.3249999284744263
-0.8767523169517517       0.22525125741958618      1.3286242485046387
-0.8719353675842285       0.23250000178813934      1.3314054012298584
-0.8689072728157043       0.24094133079051971      1.3331536054611206
-0.8678744435310364       0.25                     1.3337498903274536
-0.8689072728157043       0.2590586543083191       1.3331536054611206
-0.928496241569519        0.25                     1.2987499237060547
-0.9274634122848511       0.2590586543083191       1.2993462085723877
-0.9244353771209717       0.26750001311302185      1.3010945320129395
-0.9196183681488037       0.2747487425804138       1.3038755655288696
-0.8719353675842285       0.26750001311302185      1.3314054012298584
-0.8767523169517517       0.2747487425804138       1.3286242485046387
-0.8830299377441406       0.28031089901924133      1.3249999284744263
-0.8903403282165527       0.2838073968887329       1.3207793235778809
-0.9133408069610596       0.28031089901924133      1.307499885559082
-0.9060304164886475       0.2838073968887329       1.311720609664917
-0.8981853723526001       0.2849999964237213       1.316249966621399
-0.9313920140266418       0.24094133079051971      1.3061506748199463
-0.9353205561637878       0.24094133079051971      1.3129552602767944
-0.9324248433113098       0.25                     1.3055543899536133
-0.9362210631370544       0.23250000178813934      1.3215079307556152
-0.9392491579055786       0.24094133079051971      1.319759726524353
-0.9099589586257935       0.2161926031112671       1.3185250759124756
-0.9138875603675842       0.2161926031112671       1.3253295421600342
-0.9021139144897461       0.2150000035762787       1.3230544328689575
-0.9314041137695312       0.22525125741958618      1.3242889642715454
-0.9251264929771423       0.21968911588191986      1.3279134035110474
-0.9178161025047302       0.2161926031112671       1.3321340084075928
-0.8942688703536987       0.2161926031112671       1.3275837898254395
-0.8869584798812866       0.21968911588191986      1.3318043947219849
-0.8806809186935425       0.22525125741958618      1.3354288339614868
-0.8758639097213745       0.23250000178813934      1.338209867477417
-0.8728358745574951       0.24094133079051971      1.3399580717086792
-0.8718030452728271       0.25                     1.3405544757843018
-0.8728358745574951       0.2590586543083191       1.3399580717086792
-0.8758639097213745       0.26750001311302185      1.338209867477417
-0.9313920140266418       0.2590586543083191       1.3061506748199463
-0.9283639192581177       0.26750001311302185      1.307898998260498
-0.9235469698905945       0.2747487425804138       1.3106800317764282
-0.9172693490982056       0.28031089901924133      1.3143044710159302
-0.8806809186935425       0.2747487425804138       1.3354288339614868
-0.8869584798812866       0.28031089901924133      1.3318043947219849
-0.8942688703536987       0.2838073968887329       1.3275837898254395
-0.9099589586257935       0.2838073968887329       1.3185250759124756
-0.9021139144897461       0.2849999964237213       1.3230544328689575
-0.9363533854484558       0.25                     1.3123588562011719
-0.9402819871902466       0.25                     1.31916344165802
-0.9353205561637878       0.2590586543083191       1.3129552602767944
-0.9060425162315369       0.2150000035762787       1.3298588991165161
-0.9099710583686829       0.2150000035762787       1.3366633653640747
-0.8981974720954895       0.2161926031112671       1.334388256072998
-0.8908870816230774       0.21968911588191986      1.3386088609695435
-0.8846094608306885       0.22525125741958618      1.3422333002090454
-0.8797925114631653       0.23250000178813934      1.3450143337249756
-0.8767644166946411       0.24094133079051971      1.3467626571655273
-0.8757315874099731       0.25                     1.3473589420318604
-0.8767644166946411       0.2590586543083191       1.3467626571655273
-0.8797925114631653       0.26750001311302185      1.3450143337249756
-0.8846094608306885       0.2747487425804138       1.3422333002090454
-0.9322925209999084       0.26750001311302185      1.3147034645080566
-0.9274755120277405       0.2747487425804138       1.3174844980239868
-0.9211979508399963       0.28031089901924133      1.3211089372634888
-0.9138875603675842       0.2838073968887329       1.3253295421600342
-0.8908870816230774       0.28031089901924133      1.3386088609695435
-0.8981974720954895       0.2838073968887329       1.334388256072998
-0.9060425162315369       0.2849999964237213       1.3298588991165161
-0.9392491579055786       0.2590586543083191       1.319759726524353
-0.9362210631370544       0.26750001311302185      1.3215079307556152
-0.9021260142326355       0.2161926031112671       1.3411927223205566
-0.8948156237602234       0.21968911588191986      1.3454134464263916
-0.8885380625724792       0.22525125741958618      1.349037766456604
-0.8837210536003113       0.23250000178813934      1.3518187999725342
-0.8806930184364319       0.24094133079051971      1.353567123413086
-0.8806930184364319       0.2590586543083191       1.353567123413086
-0.8837210536003113       0.26750001311302185      1.3518187999725342
-0.8796601891517639       0.25                     1.354163408279419
-0.8885380625724792       0.2747487425804138       1.349037766456604
-0.8948156237602234       0.28031089901924133      1.3454134464263916
-0.9314041137695312       0.2747487425804138       1.3242889642715454
-0.9251264929771423       0.28031089901924133      1.3279134035110474
-0.9178161025047302       0.2838073968887329       1.3321340084075928
-0.9021260142326355       0.2838073968887329       1.3411927223205566
-0.9099710583686829       0.2849999964237213       1.3366633653640747
-0.9333333969116211       -0.5601040720939636      0.1813172847032547
-0.9333333969116211       -0.5494974851608276      0.19192388653755188
-0.9333333969116211       -0.5483189821243286      0.1695321649312973
-0.9333333969116211       -0.5707106590270996      0.17071068286895752
-0.9333333969116211       -0.5589255690574646      0.15892556309700012
-0.9333333969116211       -0.5377123355865479      0.18013876676559448
-0.9333333969116211       -0.5388908982276917      0.20253048837184906
-0.9333333969116211       -0.5282842516899109      0.21313709020614624