% Model:              Foc3_Ansys_materials_6.mph
% Version:            COMSOL 6.2.0.339
% Date:               Sep 13 2024, 14:34
% Dimension:          3
% Nodes:              2249
% Elements:           4047
% Expressions:        1
% Description:        Material settings
% Length unit:        m
% Coordinates
-0.9333334000000002       -0.4292893218813446      0.02928932188134541
-0.9333334000000002       -0.5707106781186537      0.1707106781186546
-0.9333334000000002       -0.32322330470336286     0.13535533905932723
-0.9333334000000002       -0.464644660940672       0.2767766952966364
-0.8333334000000003       -0.5707106781186538      0.17071067811865454
-0.8333334000000003       -0.464644660940672       0.27677669529663623
-0.8333334000000003       -0.4292893218813446      0.029289321881345327
-0.9333334000000004       -0.46464466094067297     0.8232233047033644
-0.9333334000000004       -0.5707106781186546      0.929289321881346
-0.9333334000000004       -0.32322330470336375     0.9646446609406734
-0.9333334000000004       -0.4292893218813454      1.070710678118655
-0.8333334000000003       -0.464644660940673       0.8232233047033644
-0.8333334000000003       -0.5707106781186546      0.929289321881346
-0.8333334000000003       -0.4292893218813454      1.070710678118655
-0.8333334000000003       -0.32322330470336286     0.13535533905932712
-0.8333334000000003       -0.32322330470336386     0.9646446609406734
-0.9333334000000004       0.4292893218813413       0.0292893218813471
-0.9333334000000004       0.32322330470336086      0.13535533905933014
-0.9333334000000004       0.5707106781186522       0.17071067811865456
-0.9333334000000004       0.4646446609406717       0.2767766952966376
-0.8333334000000003       0.42928932188134133      0.02928932188134704
-0.8333334000000003       0.32322330470336086      0.13535533905933006
-0.8333334000000003       0.46464466094067175      0.2767766952966376
-0.9333334000000002       0.464644660940672        0.8232233047033637
-0.9333334000000002       0.32322330470336286      0.9646446609406728
-0.9333334000000002       0.5707106781186537       0.9292893218813456
-0.9333334000000002       0.4292893218813446       1.0707106781186546
-0.8333334000000003       0.32322330470336286      0.9646446609406729
-0.8333334000000003       0.42928932188134467      1.0707106781186546
-0.8333334000000003       0.4646446609406719       0.8232233047033638
-0.8333334000000003       0.5707106781186522       0.17071067811865456
-0.8333334000000003       0.5707106781186538       0.9292893218813457
-0.8595214215351705       0.20000000000000018      1.1492820323027562
-0.8737479188432744       0.20000000000000018      1.1739230484541336
-0.8595214215351705       0.30000000000000027      1.1492820323027562
-0.8737479188432744       0.30000000000000027      1.1739230484541336
-0.8879744161513781       0.20000000000000018      1.198564064605511
-0.8879744161513781       0.30000000000000027      1.198564064605511
-0.9022009134594817       0.20000000000000018      1.2232050807568884
-0.9022009134594817       0.30000000000000027      1.2232050807568884
-0.8452949242270669       0.20000000000000018      1.1246410161513787
-0.8452949242270669       0.30000000000000027      1.1246410161513787
-0.8310684269189627       0.20000000000000015      1.1000000000000005
-0.8310684269189633       0.30000000000000027      1.1000000000000005
-0.8617302036879101       0.20000000000000018      1.2093603288287496
-0.8696497754609775       0.20000000000000018      1.2419984890427533
-0.8192659496434388       0.20000000000000018      1.1793536268704852
-0.8155983730810379       0.20000000000000018      1.273205080756889
-0.8221099648858865       0.20000000000000018      1.1365504173407437
-0.8247733083539243       0.20000000000000018      1.121064737539932
-0.7573042328300671       0.20000000000000015      1.1000000000000005
-0.7155983730810379       0.20000000000000015      1.1000000000000005
-0.7873176318128551       0.20000000000000015      1.1000000000000005
-0.8105161822356325       0.20000000000000015      1.1000000000000005
-0.8155353174104509       0.30000000000000027      1.163276587807824
-0.8696497754609775       0.30000000000000027      1.2419984890427533
-0.830265258421305        0.30000000000000027      1.1252441714443626
-0.8105161822356329       0.30000000000000027      1.1000000000000005
-0.787317631812856        0.30000000000000027      1.1000000000000005
-0.7155983730810376       0.30000000000000027      1.1000000000000005
-0.8155983730810379       0.30000000000000027      1.273205080756889
-0.8833334000000005       -0.15000000000000047     0.4550000000000007
-0.8833334000000005       -0.15000000000000047     0.6450000000000014
-0.8833334000000005       -1.0547118733938991E-15  0.4550000000000007
-0.8833334000000005       -1.0547118733938991E-15  0.6450000000000014
-0.8833334000000005       0.14999999999999905      0.4550000000000007
-0.8833334000000005       0.14999999999999905      0.6450000000000014
-0.8333334000000003       -0.15000000000000047     0.4550000000000007
-0.8333334000000003       -0.15000000000000047     0.6450000000000014
-0.8333334000000003       -1.0547118733938991E-15  0.4550000000000007
-0.8333334000000003       0.14999999999999905      0.4550000000000007
-0.8333334000000003       -1.0547118733938991E-15  0.6450000000000014
-0.8333334000000003       0.14999999999999905      0.6450000000000014
-0.8833334000000005       -0.03250000000000062     0.7675000000000015
-0.8833334000000005       -0.03250000000000062     0.832500000000001
-0.8833334000000005       0.032499999999999016     0.7675000000000015
-0.8833334000000005       0.032499999999999016     0.832500000000001
-0.8333334000000003       -0.03250000000000062     0.7675000000000015
-0.8333334000000003       -0.03250000000000062     0.832500000000001
-0.8333334000000003       0.032499999999999016     0.7675000000000015
-0.8333334000000003       0.032499999999999016     0.832500000000001
-0.8833334000000004       -0.03250000000000057     0.9175000000000044
-0.8833334000000004       -0.03250000000000057     0.9825000000000041
-0.8833334000000004       0.03249999999999907      0.9175000000000044
-0.8833334000000004       0.03249999999999907      0.9825000000000041
-0.8333334000000003       -0.03250000000000062     0.9175000000000044
-0.8333334000000003       -0.03250000000000062     0.9825000000000041
-0.8333334000000003       0.032499999999999016     0.9175000000000044
-0.8333334000000003       0.032499999999999016     0.9825000000000041
-0.21962056947071718      -0.6000000000000002      1.1000000000000005
-0.8333334000000003       -0.6000000000000002      1.1000000000000005
-0.022590944951210723     -0.6000000000000002      0
-0.8333334000000003       -0.6000000000000002      0
0.6305784918943034        -0.6000000000000002      0
0.5347382298441532        -0.6000000000000002      1.1000000000000005
0.9160290273497275        -0.6000000000000002      1.1000000000000005
1.1620696721707702        -0.6000000000000002      0
1.366039139331937         -0.6000000000000002      1.1000000000000005
1.6666666000000008        -0.6000000000000002      1.1000000000000005
1.6666666000000008        -0.6000000000000002      0
-0.1852576766776055       0.6000000000000002       1.1000000000000005
-0.023093374537516698     0.6000000000000002       0
-0.8333334000000003       0.6000000000000002       1.1000000000000005
-0.8333334000000003       0.6000000000000002       0
0.6339469135648079        0.6000000000000002       0
0.5003753370510416        0.6000000000000002       1.1000000000000005
0.9052554829494082        0.6000000000000002       1.1000000000000005
1.1651568063409141        0.6000000000000002       0
1.2072940606680613        0.6000000000000002       1.1000000000000005
1.6666666000000008        0.6000000000000002       0
-0.8083334000000002       0.19166666666666674      -7.324388009679851E-17
-0.8083334                0.575                    -1.0870933782787988E-16
0.008333266666666898      0.19166666666666696      -7.324388009679856E-17
0.008333266666666842      0.5749999999999997       -1.0870933782787986E-16
0.8249999333333334        0.19166666666666707      -7.324388009679857E-17
0.8249999333333338        0.5749999999999997       -1.0870933782787986E-16
1.6416666000000006        0.19166666666666668      -7.324388009679851E-17
1.6416666000000002        0.575                    -1.0870933782787988E-16
-0.8083334000000002       -0.19166666666666668     -3.777842236571712E-17
0.008333266666666898      -0.19166666666666674     -3.777842236571714E-17
0.8249999333333333        -0.19166666666666668     -3.7778422365717146E-17
1.6416666000000006        -0.19166666666666674     -3.777842236571712E-17
-0.8083334                -0.575                   -2.312964634635747E-18
0.008333266666666398      -0.5749999999999997      -2.3129646346357477E-18
0.824999933333333         -0.5749999999999997      -2.3129646346357477E-18
1.6416666000000002        -0.575                   -2.312964634635747E-18
-0.7833334000000001       0.35000000000000014      1.2080000000000004
-0.7833334000000001       0.35000000000000014      1.2440000000000004
-0.7833334000000001       0.4500000000000002       1.2080000000000004
-0.7833334000000001       0.4500000000000002       1.2440000000000004
-0.7833334000000001       0.35000000000000014      1.280000000000001
-0.7833334000000001       0.4500000000000002       1.280000000000001
-0.7833334000000001       0.35000000000000014      1.1720000000000004
-0.7833334000000001       0.4500000000000002       1.1720000000000004
-0.7833334000000001       0.35000000000000014      1.1360000000000006
-0.7833334000000001       0.4500000000000002       1.1360000000000006
-0.7833334000000001       0.35000000000000014      1.1000000000000005
-0.7833334000000001       0.4500000000000002       1.1000000000000005
-0.6333333999999995       0.35000000000000014      1.2080000000000004
-0.6333333999999995       0.35000000000000014      1.2440000000000004
-0.6333333999999995       0.35000000000000014      1.1720000000000004
-0.6333333999999995       0.35000000000000014      1.280000000000001
-0.6333333999999995       0.35000000000000014      1.1360000000000006
-0.6333333999999995       0.35000000000000014      1.1000000000000005
-0.6333333999999995       0.4500000000000002       1.280000000000001
-0.6333333999999995       0.4500000000000002       1.2080000000000004
-0.6333333999999995       0.4500000000000002       1.2440000000000004
-0.6333333999999995       0.4500000000000002       1.1720000000000004
-0.6333333999999995       0.4500000000000002       1.1360000000000006
-0.6333333999999995       0.4500000000000002       1.1000000000000005
-0.7784390516295159       -0.38090169943749475     1.1850000000000005
-0.7784390516295159       -0.38090169943749475     1.2300000000000004
-0.7784390516295158       -0.3190983005625053      1.1850000000000005
-0.7784390516295158       -0.3190983005625053      1.2300000000000004
-0.7421119252292476       -0.26909830056250533     1.1850000000000005
-0.7421119252292476       -0.26909830056250533     1.2300000000000004
-0.6833334000000003       -0.25000000000000006     1.1850000000000005
-0.6833334000000003       -0.25000000000000006     1.2300000000000004
-0.6833334000000003       -0.4500000000000002      1.1850000000000005
-0.6833334000000003       -0.4500000000000002      1.2300000000000004
-0.7421119252292478       -0.4309016994374948      1.1850000000000005
-0.7421119252292478       -0.4309016994374948      1.2300000000000004
-0.5882277483704849       -0.31909830056250543     1.1850000000000005
-0.6245548747707529       -0.2690983005625054      1.1850000000000005
-0.5882277483704847       -0.31909830056250554     1.2300000000000004
-0.6245548747707528       -0.2690983005625054      1.2300000000000004
-0.5882277483704849       -0.380901699437495       1.1850000000000005
-0.5882277483704849       -0.380901699437495       1.2300000000000004
-0.624554874770753        -0.430901699437495       1.1850000000000005
-0.624554874770753        -0.43090169943749496     1.2300000000000004
-0.7360751235208403       -0.33286317521480896     1.1000000000000005
-0.7360751235208403       -0.33286317521480885     1.1850000000000005
-0.7159295777611292       -0.30513521025311785     1.1000000000000005
-0.7159295777611292       -0.3051352102531178      1.1850000000000005
-0.6833334000000003       -0.294544070076618       1.1000000000000005
-0.6833334000000003       -0.294544070076618       1.1850000000000005
-0.7360751235208403       -0.36713682478519144     1.1000000000000005
-0.7360751235208403       -0.36713682478519133     1.1850000000000005
-0.6833334000000003       -0.40545592992338225     1.1000000000000005
-0.6833334000000003       -0.40545592992338225     1.1850000000000005
-0.7159295777611292       -0.39486478974688244     1.1000000000000005
-0.7159295777611292       -0.3948647897468824      1.1850000000000005
-0.6305916764791604       -0.33286317521480885     1.1000000000000005
-0.6507372222388716       -0.30513521025311774     1.1000000000000005
-0.6305916764791604       -0.3328631752148089      1.1850000000000005
-0.6507372222388714       -0.3051352102531178      1.1850000000000005
-0.6305916764791604       -0.36713682478519133     1.1000000000000005
-0.6305916764791604       -0.36713682478519144     1.1850000000000005
-0.6507372222388714       -0.39486478974688244     1.1000000000000005
-0.6507372222388716       -0.3948647897468825      1.1850000000000005
-0.6083334000000011       0.48250000000000026      1.2080000000000004
-0.6083334000000011       0.48250000000000026      1.2440000000000004
-0.6083334000000011       0.5825000000000002       1.2080000000000004
-0.6083334000000011       0.5825000000000002       1.2440000000000004
-0.6083334000000011       0.48250000000000026      1.1720000000000004
-0.6083334000000011       0.5825000000000002       1.1720000000000004
-0.6083334000000011       0.48250000000000026      1.280000000000001
-0.6083334000000011       0.5825000000000002       1.280000000000001
-0.6083334000000011       0.48250000000000026      1.1360000000000006
-0.6083334000000011       0.5825000000000002       1.1360000000000006
-0.6083334000000011       0.48250000000000026      1.1000000000000005
-0.6083334000000011       0.5825000000000002       1.1000000000000005
-0.45833340000000056      0.48250000000000026      1.2080000000000004
-0.45833340000000056      0.48250000000000026      1.2440000000000004
-0.45833340000000056      0.48250000000000026      1.1720000000000004
-0.45833340000000056      0.48250000000000026      1.280000000000001
-0.45833340000000056      0.48250000000000026      1.1360000000000006
-0.45833340000000056      0.48250000000000026      1.1000000000000005
-0.45833340000000056      0.5825000000000002       1.280000000000001
-0.45833340000000056      0.5825000000000002       1.2080000000000004
-0.45833340000000056      0.5825000000000002       1.2440000000000004
-0.45833340000000056      0.5825000000000002       1.1720000000000004
-0.45833340000000056      0.5825000000000002       1.1360000000000006
-0.45833340000000056      0.5825000000000002       1.1000000000000005
1.6666666000000008        0.1048213253924731       0.5938903737175432
1.6666666000000008        0.23093766800452153      -7.687717758724617E-17
1.6666666000000008        0.6000000000000002       1.1000000000000005
1.6666666000000008        -0.1545857766283027      0.736970156109166
1.6666666000000008        -0.23093766800452115     -3.414512487526953E-17
1.6666666000000008        0.3600000000000004       1.1000000000000005
-0.8851496432702599       0.2675000000000002       1.2330496361906609
-0.8851496432702599       0.2325000000000002       1.2330496361906609
-0.8588996432702598       0.21500000000000016      1.2482050807568885
-0.8588996432702598       0.28500000000000025      1.2482050807568885
-0.8326496432702597       0.2325000000000002       1.2633605253231164
-0.8326496432702597       0.26750000000000024      1.2633605253231164
-0.757304232830068        0.30000000000000027      1.1000000000000005
1.2072940606680636        -0.6000000000000002      1.1000000000000005
-0.8288126569404722       0.5002741624044676       -1.017958090417999E-16
-0.8333334000000003       0.46193359377404664      -9.824859386924037E-17
-0.8333334000000003       0.5285053529217724       -1.0440771885220749E-16
-0.8298369190426585       0.08885894043584346      -6.373225469923023E-17
-0.8333334000000003       0.05739002906187843      -6.082079553529153E-17
-0.8333334000000003       0.11438567202343558      -6.609395179522782E-17
-0.8289276177809305       0.10725053206854478      -6.543381874007426E-17
-0.8294258409348204       0.43534240467234825      -9.578841466983477E-17
-0.8333334000000003       0.39994574856972526      -9.251356611984555E-17
-0.8333334000000003       0.342062847055088        -8.715832195370717E-17
-0.8256555884800613       0.323248968560296        -8.541768852975566E-17
-0.8333334000000003       0.2852026544461582       -8.189769736878592E-17
-0.8218297193316978       0.19557214557901156      -7.36052094810213E-17
-0.8333334000000003       0.17136406482235586      -7.136551209451928E-17
-0.8333334000000003       0.22830306946550294      -7.663342825735766E-17
-0.8235458300732835       0.11484545582486855      -6.613649034211952E-17
-0.8333334000000003       3.943861003211648E-4     -5.554763927535522E-17
-0.8270659781857302       0.001049452587670308     -5.560824510009817E-17
-0.8333334000000003       -0.0566012568612361      -5.027448301541893E-17
-0.8304841899386138       0.057299148617963175     -6.081238740518128E-17
-0.8203302099031128       -0.06014219427115522     -4.9946880495314864E-17
-0.8333334000000003       -0.11359689982279314     -4.500132675548265E-17
-0.8333334000000003       -0.2276032454818276      -3.4453620930146453E-17
-0.8257007053276951       -0.21912104106771696     -3.5238382483490025E-17
-0.8333334000000003       -0.28461864714583157     -2.9178636623010734E-17
-0.8333334000000003       -0.17059600351065726     -3.9727850314044034E-17
-0.8333334000000003       -0.461817299205407       -1.2784468002253862E-17
-0.829383473904873        -0.4590469651831494      -1.304077538703826E-17
-0.8333334000000003       -0.5284739651168165      -6.61748756562105E-18
-0.8333334000000003       -0.39969850403268775     -1.8531611057481105E-17
-0.8269985299118828       -0.35221204657429755     -2.292499092649675E-17
-0.8333334000000003       -0.34164220967013376     -2.3902897284624693E-17
-0.7871711598956174       0.1872923320643682       1.1000000000000005
-0.7756670140110259       0.19038750434285498      1.1000000000000005
-0.8016280524564262       0.1885812795688084       1.1000000000000005
-0.8151386603722338       0.31793158031262375      1.1000000000000005
-0.7969474585266457       0.3189195086420504       1.1000000000000005
-0.81120449022869         0.3400800027902838       1.1000000000000005
-0.8333334000000003       0.32842548399479604      1.1000000000000005
-0.8218233506757974       0.12970779757332468      1.1000000000000005
-0.8333334000000003       0.1720343374093268       1.1000000000000005
-0.8333334000000003       0.11783987750680242      1.1000000000000005
-0.8017222035089011       0.1671168268170483       1.1000000000000005
-0.8164540835398632       0.1865074858341573       1.1000000000000005
-0.6617915687293044       0.18882947962657734      1.1000000000000005
-0.6600018406806355       0.24765330294457744      1.1000000000000005
-0.7705171838783554       0.18437297777938363      1.1000000000000005
-0.6382152291274469       0.2877033872236021       1.1000000000000005
-0.7727867041572484       0.3191875357625176       1.1000000000000005
-0.8333334000000003       0.3838131348294798       1.1000000000000005
-0.8017222035089011       0.05511682681704813      1.1000000000000005
-0.8333334000000003       0.035608120752882236     1.1000000000000005
-0.5967847385400555       0.3104240841126161       1.1000000000000005
-0.5631599577669186       0.34768625602312314      1.1000000000000005
-0.6024608881328757       0.2673933051145596       1.1000000000000005
-0.5074807114748066       0.3447764525789812       1.1000000000000005
-0.5349796928944144       0.2751834710067338       1.1000000000000005
-0.6167926644690633       0.2265562220443933       1.1000000000000005
-0.5708223749249532       0.23701214690974592      1.1000000000000005
-0.5537222035089011       0.1671168268170483       1.1000000000000005
-0.5139631739937905       0.1873226606885574       1.1000000000000005
-0.7479223089383676       0.4962523142260523       1.1000000000000005
-0.6652088314650347       0.5084433780395518       1.1000000000000005
-0.8333334000000003       0.46580175216399533      1.1000000000000005
-0.7184641019442605       0.5294391929522354       1.1000000000000005
-0.5907864645951435       0.4101886764067227       1.1000000000000005
-0.5310091685287308       0.41754897399981955      1.1000000000000005
-0.4612361117707551       0.4134454780545234       1.1000000000000005
-0.425462699039208        0.45565570984686976      1.1000000000000005
-0.38997774424685777      0.42581468206490686      1.1000000000000005
-0.441458943428406        0.3518758217175362       1.1000000000000005
-0.4830169010437127       0.27193706329909123      1.1000000000000005
-0.5337851108088755       0.09943432380853098      1.1000000000000005
-0.5537222035089011       0.05511682681704813      1.1000000000000005
-0.5421543441583292       0.009727998101920347     1.1000000000000005
-0.8333334000000003       -0.052879951628074816    1.1000000000000005
-0.8017222035089011       -0.05688317318295191     1.1000000000000005
-0.8333334000000003       -0.1407025293216504      1.1000000000000005
-0.8017222035089011       -0.16888317318295207     1.1000000000000005
-0.8333334000000003       -0.21177637895528453     1.1000000000000005
-0.7814181509170653       -0.256816399845037       1.1000000000000005
-0.5537222035089011       -0.05688317318295191     1.1000000000000005
-0.5389322305362177       -0.0803102544491173      1.1000000000000005
-0.5537222035089011       -0.16888317318295207     1.1000000000000005
-0.5241721470095237       -0.16918887321045523     1.1000000000000005
-0.5461284320315392       -0.23063613473774547     1.1000000000000005
-0.3952489857074745       0.4926375521404972       1.1000000000000005
-0.3294261335787421       0.4925287839035375       1.1000000000000005
-0.35431076392465516      0.5508477782240954       1.1000000000000005
-0.26080720062499974      0.5509129510974606       1.1000000000000005
-0.7484931811018315       -0.29875053887079034     1.1000000000000005
-0.7744813334246258       -0.3049489693105946      1.1000000000000005
-0.602353154773186        -0.3375955406508335      1.1000000000000005
-0.5997686859263964       -0.30243517901069567     1.1000000000000005
-0.7155839144285986       -0.2603762762475345      1.1000000000000005
-0.6299612623619909       -0.2617659655404571      1.1000000000000005
-0.6751092055633391       -0.22599801352076654     1.1000000000000005
-0.7264649950922871       -0.2846010266923121      1.1000000000000005
-0.4981186069813959       -0.2554355078731536      1.1000000000000005
-0.5511467477035812       -0.3197863637948336      1.1000000000000005
-0.584288948467323        -0.3663088724969562      1.1000000000000005
-0.7796913229015446       -0.34431995771481994     1.1000000000000005
-0.8333334000000003       -0.292805910717999       1.1000000000000005
-0.4612032096175729       -0.3376214091951522      1.1000000000000005
-0.7608757117644761       -0.37643332536304863     1.1000000000000005
-0.700850126273678        -0.4132718987960737      1.1000000000000005
-0.6139027207517593       -0.38900790691963477     1.1000000000000005
-0.5852731376767306       -0.3916782206497987      1.1000000000000005
-0.6138912444408373       -0.4102477905495372      1.1000000000000005
-0.5381176694165195       -0.38307864107166983     1.1000000000000005
-0.5677523517078946       -0.4112875887794761      1.1000000000000005
-0.41403749003719514      -0.414385097454012       1.1000000000000005
-0.6612153122742271       -0.42711761894981126     1.1000000000000005
-0.7007365743854045       -0.4289307541094716      1.1000000000000005
-0.6128598646637797       -0.43409875970476053     1.1000000000000005
-0.7417860953810597       -0.4120381300261152      1.1000000000000005
-0.8333334000000003       -0.40841797171808075     1.1000000000000005
-0.5004401866128292       -0.47691740156885837     1.1000000000000005
-0.35740278871070835      -0.48445491652255146     1.1000000000000005
-0.6915262631793183       -0.48049331830466946     1.1000000000000005
-0.29223730788694247      -0.5466700999398293      1.1000000000000005
1.3660391393319393        0.6000000000000002       1.1000000000000005
-0.7049780969573208       -0.2856855507688         1.1850000000000005
-0.6288094745317024       -0.30962937994370554     1.1850000000000005
-0.6288191233987933       -0.3908298180194991      1.1850000000000005
-0.7515918529787226       -0.3615676180556492      1.1850000000000005
-0.7453570284751178       -0.3806823669832295      1.1850000000000005
-0.7308280555584993       -0.31704623608253907     1.2300000000000004
-0.6252245262142511       -0.3507093429590729      1.2300000000000004
-0.738866638978357        -0.3515026884856825      1.2300000000000004
-0.7304414862467188       -0.3837614883215642      1.2300000000000004
-0.7044827859674461       -0.4038825210931462      1.2300000000000004
-0.7043327695620432       -0.29642672121095637     1.2300000000000004
-0.6359989514066862       -0.32035075795183643     1.2300000000000004
-0.667414847379177        -0.30159124604563436     1.2300000000000004
-0.6361433191228136       -0.38162871083342664     1.2300000000000004
-0.6694767653022037       -0.4004600735587239      1.2300000000000004
-0.7001365595060571       -0.3332023909594244      1.2300000000000004
-0.6680144329904821       -0.350968020426749       1.2300000000000004
-0.7009774629720016       -0.3693662562117881      1.2300000000000004
1.1696974377173952        0.4832004650244534       1.1000000000000005
1.1666666                 0.5100000000000012       1.1000000000000005
1.12846393745115          0.4846609940738812       1.1000000000000005
1.1423143225926329        0.4426154320300991       1.1000000000000005
1.1820297204392238        0.45125373683557857      1.1000000000000005
1.1722792857315723        0.43123087332243243      1.1000000000000005
1.1976142828698644        0.4295656490437481       1.1000000000000005
1.1659672235448406        0.40098120836308165      1.1000000000000005
1.1708860340584806        0.5415414100867655       1.1000000000000005
1.1334706819509703        0.5322661942050625       1.1000000000000005
1.184670141558474         0.5732196367071667       1.1000000000000005
1.0704728468711862        0.4935114509275985       1.1000000000000005
1.0690475747657229        0.4532209473046952       1.1000000000000005
1.082495957516557         0.39908046893781696      1.1000000000000005
0.9675652844570055        0.28949751522210065      1.1000000000000005
0.9402968448074579        0.3176516168999935       1.1000000000000005
0.9342554166555832        0.2694207044654835       1.1000000000000005
1.0317033079510498        0.5639358693293416       1.1000000000000005
1.009852003890745         0.47955925809766586      1.1000000000000005
0.9333170385245799        0.5157056658352487       1.1000000000000005
0.6445437939521785        0.4925287839035374       1.1000000000000005
0.7160046649958034        0.5468145078384549       1.1000000000000005
0.5759248609984359        0.5509129510974605       1.1000000000000005
0.7287536074016975        0.4696372249831203       1.1000000000000005
0.7050954046202939        0.42581468206490697      1.1000000000000005
0.7920592824175602        0.4156616026802192       1.1000000000000005
0.7565766038018422        0.3518758217175363       1.1000000000000005
0.8474592970671988        0.36635409368117894      1.1000000000000005
0.7981345614171491        0.27193706329909073      1.1000000000000005
0.8623619651198403        0.28234814006547304      1.1000000000000005
0.9658937725734618        0.2579990390770484       1.1000000000000005
0.8290808343672268        0.18732266068855696      1.1000000000000005
0.8958700880228909        0.2408753206315294       1.1000000000000005
1.119971797195834         0.35943695230591455      1.1000000000000005
1.0661307991761253        0.3108063734494034       1.1000000000000005
1.027502858286187         0.2759166203875235       1.1000000000000005
1.0023689343468851        0.3275291664084968       1.1000000000000005
0.9935378401126633        0.27684218172624353      1.1000000000000005
0.9989296792825348        0.2501085877390635       1.1000000000000005
0.9466666000000001        0.2300000000000011       1.1000000000000005
0.9850709914421765        0.3984184651239367       1.1000000000000005
0.8462043240046868        0.49707080576343465      1.1000000000000005
0.9090022851467275        0.4508443541991939       1.1000000000000005
0.9095690168444934        0.16294952892820455      1.1000000000000005
0.8489027711823116        0.09943432380853051      1.1000000000000005
0.9105584011221562        0.20922664535413868      1.1000000000000005
0.9333785476696207        0.20437650918182423      1.1000000000000005
0.9766666000000006        0.2000000000000001       1.1000000000000005
0.922849695122996         -0.24444675636016816     1.1000000000000005
0.9466666000000001        -0.2299999999999991      1.1000000000000005
0.9178884627637376        -0.22773789208817652     1.1000000000000005
0.9143367032542334        -0.19680265760034596     1.1000000000000005
0.888403542496819         -0.2364587261025355      1.1000000000000005
0.8392898073829597        -0.169188873210456       1.1000000000000005
0.813236267354832         -0.2554355078731541      1.1000000000000005