% Model:              Foc3_Ansys_materials_4.mph
% Version:            COMSOL 6.2.0.339
% Date:               Apr 12 2024, 11:04
% Dimension:          3
% Nodes:              4208
% Elements:           7768
% Expressions:        1
% Description:        Material settings
% Length unit:        m
% Coordinates
-0.9333334000000001       -0.5235702260395505      0.12357022603955137
-0.9333334000000001       -0.5707106781186537      0.1707106781186546
-0.9333334000000001       -0.48821488698022303     0.15892556509887876
-0.9333334000000001       -0.5353553390593263      0.20606601717798198
-0.9333334000000001       -0.45285954792089567     0.19428090415820617
-0.9333334000000001       -0.49999999999999895     0.24142135623730937
-0.9333334000000001       -0.4175042088615688      0.2296362432175332
-0.9333334000000001       -0.464644660940672       0.2767766952966364
-0.9333334000000001       -0.47642977396044733     0.07642977396044816
-0.9333334000000001       -0.44107443490112        0.11178511301977556
-0.9333334000000001       -0.4292893218813446      0.029289321881345406
-0.9333334000000001       -0.3939339828220172      0.06464466094067282
-0.9333334000000001       -0.4057190958417926      0.14714045207910292
-0.9333334000000001       -0.35857864376268983     0.1000000000000002
-0.9333334000000001       -0.3703637567824656      0.18249579113842998
-0.9333334000000001       -0.32322330470336286     0.13535533905932723
-0.9000000666666668       -0.5707106781186537      0.1707106781186546
-0.8666667333333333       -0.5707106781186537      0.1707106781186546
-0.9000000666666668       -0.5353553390593263      0.20606601717798198
-0.8666667333333333       -0.5353553390593263      0.20606601717798198
-0.8333334                -0.5707106781186537      0.1707106781186546
-0.8333334                -0.5353553390593263      0.20606601717798198
-0.9000000666666668       -0.49999999999999895     0.24142135623730934
-0.9000000666666668       -0.464644660940672       0.2767766952966364
-0.8666667333333333       -0.49999999999999895     0.24142135623730934
-0.8333334                -0.49999999999999895     0.24142135623730937
-0.8666667333333333       -0.464644660940672       0.2767766952966364
-0.8333334                -0.464644660940672       0.2767766952966364
-0.9000000666666668       -0.5235702260395505      0.12357022603955137
-0.8666667333333332       -0.5235702260395505      0.12357022603955137
-0.8333334                -0.5235702260395505      0.12357022603955137
-0.8666667333333332       -0.47642977396044733     0.07642977396044816
-0.8333334                -0.47642977396044733     0.07642977396044816
-0.9000000666666668       -0.47642977396044733     0.0764297739604482
-0.9000000666666668       -0.4292893218813446      0.029289321881345406
-0.8666667333333333       -0.4292893218813446      0.029289321881345406
-0.8333334                -0.4292893218813446      0.029289321881345406
-0.9000000666666668       -0.4175042088615688      0.22963624321753323
-0.8666667333333333       -0.4175042088615688      0.22963624321753323
-0.9000000666666668       -0.3703637567824656      0.18249579113842998
-0.8333334                -0.4175042088615688      0.2296362432175332
-0.8666667333333333       -0.3703637567824656      0.18249579113842998
-0.9000000666666668       -0.32322330470336286     0.13535533905932723
-0.8333334                -0.3703637567824656      0.18249579113842998
-0.8666667333333333       -0.32322330470336286     0.13535533905932723
-0.8333334                -0.32322330470336286     0.13535533905932723
-0.9000000666666668       -0.3939339828220172      0.06464466094067281
-0.8666667333333333       -0.3939339828220172      0.06464466094067282
-0.9000000666666668       -0.3585786437626899      0.10000000000000016
-0.8333334                -0.3939339828220172      0.06464466094067282
-0.8666667333333333       -0.35857864376268983     0.10000000000000017
-0.8333334                -0.35857864376268983     0.1000000000000002
-0.8333334                -0.5051783066842365      0.17702451698601582
-0.8333334                -0.4317459350805657      0.08794251241468212
-0.8333334                -0.45858048514643385     0.13806530709712217
-0.8333334                -0.45777221563212        0.21223057888757543
-0.8333334                -0.40674036325870444     0.1156097987020586
-0.8333334                -0.4127646777790108      0.16514317277369012
-0.8333334                -0.3792443940547672      0.13749915780703317
-0.9333334000000004       -0.4410744349011214      0.9882148869802243
-0.9333334000000004       -0.47642977396044867     1.0235702260395518
-0.9333334000000004       -0.393933982822018       1.0353553390593275
-0.9333334000000004       -0.4292893218813454      1.070710678118655
-0.9333334000000004       -0.4882148869802245      0.9410744349011213
-0.9333334000000004       -0.5235702260395518      0.9764297739604487
-0.9333334000000004       -0.40571909584179394     0.9528595479208969
-0.9333334000000004       -0.3585786437626907      1.0000000000000002
-0.9333334000000004       -0.5353553390593273      0.8939339828220186
-0.9333334000000004       -0.5707106781186546      0.929289321881346
-0.9333334000000004       -0.45285954792089717     0.905719095841794
-0.9333334000000004       -0.37036375678246697     0.9175042088615702
-0.9333334000000004       -0.32322330470336375     0.9646446609406734
-0.9333334000000004       -0.4999999999999999      0.8585786437626911
-0.9333334000000004       -0.4175042088615702      0.8703637567824669
-0.9333334000000004       -0.46464466094067297     0.8232233047033642
-0.8666667333333338       -0.5353553390593273      0.8939339828220187
-0.8333334000000003       -0.5353553390593273      0.8939339828220186
-0.8666667333333337       -0.5707106781186546      0.929289321881346
-0.8333334000000003       -0.5707106781186546      0.929289321881346
-0.9000000666666672       -0.5353553390593273      0.8939339828220187
-0.9000000666666671       -0.5707106781186546      0.929289321881346
-0.8666667333333335       -0.49999999999999983     0.858578643762691
-0.8333334000000003       -0.4999999999999999      0.8585786437626911
-0.9000000666666672       -0.49999999999999983     0.858578643762691
-0.8666667333333337       -0.46464466094067297     0.8232233047033642
-0.8333334000000003       -0.46464466094067297     0.8232233047033642
-0.9000000666666671       -0.46464466094067297     0.8232233047033642
-0.8666667333333338       -0.4764297739604487      1.0235702260395518
-0.8333334000000003       -0.47642977396044867     1.0235702260395518
-0.8666667333333337       -0.4292893218813454      1.070710678118655
-0.8333334000000003       -0.4292893218813454      1.070710678118655
-0.9000000666666672       -0.4764297739604487      1.0235702260395518
-0.9000000666666671       -0.4292893218813454      1.070710678118655
-0.8666667333333335       -0.523570226039552       0.9764297739604487
-0.8333334000000003       -0.5235702260395518      0.9764297739604487
-0.9000000666666672       -0.523570226039552       0.9764297739604487
-0.8666667333333338       -0.3703637567824669      0.9175042088615704
-0.8666667333333337       -0.32322330470336375     0.9646446609406734
-0.8333334000000003       -0.37036375678246697     0.9175042088615702
-0.8333334000000003       -0.32322330470336375     0.9646446609406734
-0.9000000666666672       -0.3703637567824669      0.9175042088615704
-0.9000000666666671       -0.32322330470336375     0.9646446609406734
-0.8666667333333338       -0.4175042088615703      0.870363756782467
-0.8333334000000003       -0.4175042088615702      0.8703637567824669
-0.9000000666666672       -0.4175042088615703      0.870363756782467
-0.8666667333333338       -0.39393398282201797     1.0353553390593275
-0.8333334000000003       -0.393933982822018       1.0353553390593275
-0.8666667333333338       -0.3585786437626907      1.0000000000000002
-0.8333334000000003       -0.3585786437626907      1.0000000000000002
-0.9000000666666672       -0.39393398282201797     1.0353553390593275
-0.9000000666666672       -0.3585786437626907      1.0000000000000002
-0.8333334000000003       -0.4229754830139843      1.0051783066842377
-0.8333334000000003       -0.4619346929028779      0.9585804851464352
-0.8333334000000003       -0.512057487585318       0.9317459350805671
-0.8333334000000003       -0.3877694211124247      0.9577722156321214
-0.8333334000000003       -0.4843902012979416      0.9067403632587059
-0.8333334000000003       -0.43485682722630986     0.9127646777790123
-0.8333334000000003       -0.4625008421929669      0.8792443940547685
-0.9333334000000004       0.3585786437626874       0.10000000000000277
-0.9333334000000004       0.32322330470336086      0.13535533905933014
-0.9333334000000004       0.40571909584179117      0.1471404520791054
-0.9333334000000004       0.3703637567824646       0.18249579113843278
-0.9333334000000004       0.45285954792089483      0.19428090415820803
-0.9333334000000004       0.41750420886156836      0.22963624321753542
-0.9333334000000004       0.3939339828220143       0.06464466094067495
-0.9333334000000004       0.4410744349011181       0.11178511301977755
-0.9333334000000004       0.4999999999999983       0.24142135623731018
-0.9333334000000004       0.4646446609406717       0.27677669529663756
-0.9333334000000004       0.48821488698022186      0.15892556509888026
-0.9333334000000004       0.4292893218813413       0.0292893218813471
-0.9333334000000004       0.47642977396044506      0.07642977396044973
-0.9333334000000004       0.5353553390593252       0.20606601717798237
-0.9333334000000004       0.5235702260395488       0.12357022603955237
-0.9333334000000004       0.5707106781186522       0.17071067811865454
-0.8666667333333338       0.3585786437626874       0.10000000000000275
-0.8333334000000003       0.3585786437626874       0.10000000000000277
-0.8666667333333337       0.32322330470336086      0.13535533905933014
-0.8333334000000003       0.32322330470336086      0.13535533905933014
-0.9000000666666672       0.3585786437626874       0.10000000000000275
-0.9000000666666671       0.32322330470336086      0.13535533905933014
-0.8666667333333335       0.3939339828220143       0.06464466094067495
-0.8333334000000003       0.3939339828220143       0.06464466094067495
-0.9000000666666672       0.3939339828220143       0.06464466094067493
-0.8666667333333337       0.4292893218813413       0.0292893218813471
-0.8333334000000003       0.4292893218813413       0.0292893218813471
-0.9000000666666671       0.4292893218813413       0.0292893218813471
-0.9000000666666672       0.3703637567824646       0.18249579113843276
-0.8666667333333335       0.3703637567824646       0.18249579113843276
-0.8333334000000003       0.3703637567824646       0.18249579113843278
-0.8666667333333338       0.41750420886156836      0.22963624321753542
-0.8333334000000003       0.41750420886156836      0.22963624321753542
-0.8666667333333337       0.4646446609406717       0.27677669529663756
-0.8333334000000003       0.4646446609406717       0.27677669529663756
-0.9000000666666672       0.41750420886156836      0.22963624321753542
-0.9000000666666671       0.4646446609406717       0.27677669529663756
-0.8666667333333335       0.47642977396044506      0.0764297739604497
-0.8333334000000003       0.47642977396044506      0.07642977396044973
-0.9000000666666672       0.47642977396044506      0.0764297739604497
-0.8666667333333335       0.5235702260395488       0.12357022603955237
-0.8333334000000003       0.5235702260395488       0.12357022603955237
-0.9000000666666672       0.5235702260395488       0.12357022603955237
-0.8666667333333337       0.5707106781186522       0.17071067811865454
-0.8333334000000003       0.5707106781186522       0.17071067811865454
-0.9000000666666671       0.5707106781186522       0.17071067811865454
-0.8666667333333335       0.4999999999999983       0.24142135623731018
-0.8333334000000003       0.4999999999999983       0.24142135623731018
-0.9000000666666672       0.49999999999999817      0.24142135623731018
-0.8666667333333335       0.5353553390593252       0.20606601717798237
-0.8333334000000003       0.5353553390593252       0.20606601717798237
-0.9000000666666672       0.5353553390593252       0.2060660171779824
-0.8333334000000003       0.3790625458101682       0.13579192915731553
-0.8333334000000003       0.40808638190361646      0.11161559113392323
-0.8333334000000003       0.43058305279787173      0.08571281533420952
-0.8333334000000003       0.42719915586226476      0.16670419336246414
-0.8333334000000003       0.45584983742889523      0.12001735610717716
-0.8333334000000003       0.46963391549769096      0.21128038873498514
-0.8333334000000003       0.5039969465856597       0.16430523022417656
-0.9333334000000001       0.5353553390593263       0.8939339828220181
-0.9333334000000001       0.488214886980223        0.9410744349011213
-0.9333334000000001       0.5707106781186537       0.9292893218813455
-0.9333334000000001       0.5235702260395505       0.9764297739604487
-0.9333334000000001       0.49999999999999895      0.8585786437626907
-0.9333334000000001       0.4528595479208958       0.905719095841794
-0.9333334000000001       0.4410744349011199       0.9882148869802244
-0.9333334000000001       0.47642977396044733      1.0235702260395518
-0.9333334000000001       0.464644660940672        0.8232233047033636
-0.9333334000000001       0.4175042088615688       0.8703637567824668
-0.9333334000000001       0.40571909584179255      0.9528595479208973
-0.9333334000000001       0.3939339828220172       1.0353553390593273
-0.9333334000000001       0.4292893218813446       1.0707106781186546
-0.9333334000000001       0.3703637567824656       0.9175042088615701
-0.9333334000000001       0.35857864376268983      0.9999999999999999
-0.9333334000000001       0.32322330470336286      0.9646446609406728
-0.8666667333333333       0.39393398282201725      1.0353553390593273
-0.8333334                0.3939339828220172       1.0353553390593273
-0.8666667333333333       0.4292893218813446       1.0707106781186546
-0.8333334                0.4292893218813446       1.0707106781186546
-0.9000000666666668       0.39393398282201725      1.0353553390593273
-0.9000000666666668       0.4292893218813446       1.0707106781186546
-0.8666667333333333       0.3585786437626899       0.9999999999999999
-0.8333334                0.35857864376268983      0.9999999999999999
-0.9000000666666668       0.3585786437626899       0.9999999999999999
-0.8666667333333333       0.32322330470336286      0.9646446609406728
-0.8333334                0.32322330470336286      0.9646446609406728
-0.9000000666666668       0.32322330470336286      0.9646446609406728
-0.8666667333333333       0.464644660940672        0.8232233047033636
-0.8333334                0.464644660940672        0.8232233047033636
-0.8666667333333333       0.4175042088615687       0.8703637567824668
-0.8333334                0.4175042088615688       0.8703637567824668
-0.9000000666666668       0.464644660940672        0.8232233047033636
-0.9000000666666668       0.4175042088615688       0.8703637567824668
-0.8666667333333333       0.3703637567824655       0.9175042088615701
-0.8333334                0.3703637567824656       0.9175042088615701
-0.9000000666666668       0.3703637567824655       0.9175042088615701
-0.8666667333333333       0.5707106781186537       0.9292893218813455
-0.8666667333333332       0.5235702260395505       0.9764297739604487
-0.8333334                0.5707106781186537       0.9292893218813455
-0.8333334                0.5235702260395505       0.9764297739604487
-0.9000000666666668       0.5707106781186537       0.9292893218813455
-0.9000000666666668       0.5235702260395505       0.9764297739604487
-0.9000000666666668       0.47642977396044744      1.0235702260395518
-0.8666667333333332       0.47642977396044744      1.0235702260395518
-0.8333334                0.47642977396044733      1.0235702260395518
-0.8666667333333333       0.5353553390593263       0.893933982822018
-0.8333334                0.5353553390593263       0.8939339828220181
-0.9000000666666668       0.5353553390593263       0.893933982822018
-0.9000000666666668       0.49999999999999895      0.8585786437626907
-0.8666667333333333       0.49999999999999895      0.8585786437626907
-0.8333334                0.49999999999999895      0.8585786437626907
-0.8333334                0.5142871846657913       0.9305830527978752
-0.8333334                0.4883844088660779       0.9080863819036197
-0.8333334                0.46420807084268606      0.8790625458101708
-0.8333334                0.47998264389282336      0.9558498374288982
-0.8333334                0.4356947697758234       1.0039969465856622
-0.8333334                0.43329580663753675      0.9271991558622673
-0.8333334                0.3887196112650153       0.9696339154976931
-0.9169993451862786       0.22525126265847015      1.2993392416969833
-0.8955663099369265       0.21500000000000016      1.3117136103677476
-0.9353326785196127       0.22525126265847106      1.3310935065024123
-0.9138996432702599       0.21500000000000016      1.343467875173177
-0.925877199069382        0.2500000000000159       1.2942136103677475
-0.9442105324027152       0.25000000000000017      1.325967875173177
-0.9169993451862792       0.2747487373415294       1.299339241696983
-0.9353326785196127       0.2747487373415294       1.3310935065024123
-0.9075438657360486       0.250000000000008        1.2624593455623183
-0.8986660118529445       0.2252512626584693       1.2675849768915546
-0.8955663099369265       0.28500000000000025      1.3117136103677476
-0.9138996432702599       0.28500000000000025      1.343467875173177
-0.8986660118529459       0.2747487373415293       1.2675849768915535
-0.8892105324027152       0.25000000000000017      1.2307050807568884
-0.8803326785196126       0.22525126265847106      1.2358307120861238
-0.8772329766035931       0.21500000000000016      1.2799593455623182
-0.8588996432702597       0.21500000000000016      1.2482050807568885
-0.8772329766035932       0.28500000000000025      1.2799593455623182
-0.8803326785196126       0.2747487373415294       1.2358307120861238
-0.8588996432702597       0.28500000000000025      1.2482050807568885
-0.8741332746875736       0.2252512626584711       1.3240879790385123
-0.892466608020907        0.22525126265847106      1.3558422438439417
-0.865255420804471        0.2500000000000002       1.3292136103677477
-0.8835887541378045       0.2500000000000003       1.360967875173177
-0.8557999413542404       0.2252512626584711       1.292333714233083
-0.8741332746875743       0.27474873734153027      1.3240879790385118
-0.892466608020907        0.27474873734152944      1.3558422438439415
-0.8469220874711377       0.2500000000000002       1.2974593455623185
-0.8374666080209069       0.22525126265847106      1.2605794494276534
-0.8557999413542415       0.27474873734153077      1.2923337142330824
-0.8285887541378043       0.2500000000000002       1.2657050807568888
-0.8374666080209069       0.27474873734152944      1.2605794494276532
-0.9138996432702599       0.2500000000000002       1.343467875173177
-0.8690139057134754       0.23909512623840043      1.2423656086126433
-0.8803326785196126       0.22525126265847106      1.2358307120861238
-0.8892105324027152       0.25000000000000017      1.2307050807568884
-0.8588996432702597       0.21500000000000016      1.2482050807568885
-0.8668495956240146       0.25927657313976754      1.2436151736254033
-0.8803326785196126       0.2747487373415294       1.2358307120861238
-0.8516324334508498       0.24178015598885458      1.2524008063023826
-0.8374666080209069       0.22525126265847106      1.2605794494276534
-0.8496943697668857       0.262222414820008        1.253519747892026
-0.8588996432702597       0.28500000000000025      1.2482050807568885
-0.8285887541378043       0.2500000000000002       1.2657050807568888
-0.8374666080209069       0.27474873734152944      1.2605794494276532
-0.8879744161513781       0.28000000000000014      1.198564064605511
-0.9022009134594817       0.28000000000000025      1.2232050807568884
-0.8879744161513781       0.30000000000000027      1.198564064605511
-0.9022009134594817       0.30000000000000027      1.2232050807568884
-0.8879744161513781       0.2600000000000002       1.198564064605511
-0.9022009134594817       0.26000000000000023      1.2232050807568884
-0.8879744161513781       0.24000000000000024      1.198564064605511
-0.9022009134594817       0.24000000000000024      1.2232050807568884
-0.8879744161513781       0.22000000000000025      1.198564064605511
-0.9022009134594817       0.22000000000000022      1.2232050807568884
-0.8737479188432744       0.28000000000000014      1.1739230484541336
-0.8737479188432743       0.30000000000000027      1.1739230484541336
-0.8737479188432744       0.2600000000000002       1.1739230484541336
-0.8595214215351704       0.2800000000000002       1.1492820323027562
-0.8595214215351705       0.30000000000000027      1.1492820323027562
-0.8737479188432744       0.24000000000000024      1.1739230484541336
-0.8879744161513781       0.20000000000000018      1.198564064605511
-0.9022009134594817       0.20000000000000018      1.2232050807568884
-0.8737479188432744       0.22000000000000025      1.1739230484541336
-0.8595214215351704       0.2600000000000002       1.1492820323027562
-0.8452949242270669       0.2800000000000002       1.1246410161513787
-0.8452949242270669       0.30000000000000027      1.1246410161513787
-0.8310684269189632       0.2800000000000003       1.1000000000000014
-0.8310684269189632       0.30000000000000027      1.1000000000000014
-0.8452949242270669       0.26000000000000023      1.1246410161513787
-0.8310684269189632       0.2600000000000003       1.1000000000000014
-0.8595214215351704       0.24000000000000024      1.1492820323027562
-0.8737479188432743       0.20000000000000018      1.1739230484541336
-0.8595214215351704       0.22000000000000028      1.1492820323027562
-0.8595214215351705       0.20000000000000018      1.1492820323027562
-0.8452949242270669       0.24000000000000024      1.1246410161513787
-0.8452949242270669       0.22000000000000028      1.1246410161513787
-0.8452949242270669       0.20000000000000018      1.1246410161513787
-0.8310684269189632       0.24000000000000027      1.1000000000000014
-0.8310684269189632       0.2200000000000003       1.1000000000000014
-0.8310684269189632       0.20000000000000018      1.1000000000000014
-0.7955983730810378       0.28000000000000025      1.238564064605511
-0.7955983730810379       0.30000000000000027      1.2385640646055112
-0.8155983730810379       0.28000000000000025      1.2732050807568889
-0.8155983730810379       0.30000000000000027      1.2732050807568889
-0.775598373081038        0.28000000000000025      1.2039230484541337
-0.7755983730810379       0.30000000000000027      1.2039230484541337
-0.7955983730810378       0.26000000000000023      1.238564064605511
-0.8155983730810379       0.26000000000000023      1.2732050807568889
-0.7955983730810378       0.24000000000000024      1.238564064605511
-0.8155983730810379       0.24000000000000024      1.2732050807568889
-0.775598373081038        0.26000000000000023      1.2039230484541337
-0.7955983730810378       0.22000000000000025      1.238564064605511
-0.8155983730810379       0.22000000000000022      1.2732050807568889
-0.7555983730810378       0.28000000000000025      1.169282032302756
-0.7555983730810378       0.30000000000000027      1.169282032302756
-0.7355983730810378       0.28000000000000025      1.1346410161513785
-0.7355983730810378       0.30000000000000027      1.1346410161513785
-0.7555983730810378       0.26000000000000023      1.169282032302756
-0.775598373081038        0.24000000000000024      1.2039230484541337
-0.7955983730810379       0.20000000000000018      1.2385640646055112
-0.8155983730810379       0.20000000000000018      1.2732050807568889
-0.775598373081038        0.22000000000000025      1.2039230484541337
-0.7555983730810378       0.24000000000000024      1.169282032302756
-0.7355983730810378       0.26000000000000023      1.1346410161513785
-0.7155983730810378       0.28000000000000025      1.1000000000000008
-0.7155983730810378       0.30000000000000027      1.1000000000000008
-0.7755983730810379       0.20000000000000018      1.2039230484541337
-0.7555983730810378       0.22000000000000025      1.169282032302756
-0.7355983730810378       0.24000000000000024      1.1346410161513785
-0.7155983730810378       0.26000000000000023      1.1000000000000008
-0.7555983730810378       0.20000000000000018      1.169282032302756
-0.7355983730810378       0.22000000000000025      1.1346410161513785
-0.7155983730810378       0.24000000000000024      1.1000000000000008
-0.7355983730810378       0.20000000000000018      1.1346410161513785
-0.7155983730810378       0.22000000000000022      1.1000000000000008
-0.7155983730810378       0.20000000000000018      1.1000000000000008
-0.8871655310305748       0.2846733496337952       1.231885762849587
-0.8757824798863723       0.30000000000000027      1.2384577704918913
-0.8892240214554721       0.267510883374236        1.2306972928486481
-0.8269533767238275       0.2874771012098177       1.266649266347075
-0.8401691999128018       0.30000000000000027      1.259019107271358
-0.8925212364845253       0.21371975267181145      1.2287936448640484
-0.8849263544549422       0.22623365069949236      1.2331785520482916
-0.8834499980193442       0.24996795662545307      1.2340309268338039
-0.8649904733064943       0.27164355838058696      1.2446885383958803
-0.8348240230806131       0.27470505860405475      1.2621051465542885
-0.8385246902013029       0.24985438653514633      1.259968565395977
-0.8757824798863723       0.20000000000000018      1.2384577704918913
-0.8583406717181614       0.2280275633299692       1.2485278031329619
-0.8325163099817714       0.22033568606641118      1.263437505333117
-0.8401691999128018       0.20000000000000018      1.259019107271358
-0.8744849539038289       0.20000000000000018      1.2165998803236808
-0.847700096674066        0.20000000000000018      1.2264688507426256
-0.8583931987969572       0.20000000000000018      1.1968909676280846
-0.8241465842494207       0.20000000000000018      1.2402594788780998
-0.8387303704802799       0.20000000000000018      1.1740430943436044
-0.8326718692997092       0.20000000000000018      1.148021347526253
-0.8180343255612712       0.20000000000000018      1.2060615533748762
-0.8107016089827788       0.20000000000000018      1.127926935626998
-0.8030375883024623       0.20000000000000018      1.164961473770951
-0.7969448247204474       0.20000000000000018      1.1000000000000008
-0.7746488678454899       0.20000000000000018      1.1332815065502098
-0.7471516254871323       0.20000000000000018      1.1000000000000008
-0.871415407272871        0.30000000000000027      1.214712716462044
-0.8299284693670423       0.30000000000000027      1.2340701244811938
-0.8538760717101718       0.30000000000000027      1.1939064931117813
-0.817198963305887        0.30000000000000027      1.1985023119444944
-0.8401235485428047       0.30000000000000027      1.1719616079421347
-0.8350018247529788       0.30000000000000027      1.146609684673939
-0.8045382364592933       0.30000000000000027      1.1641558561781755
-0.813852040160317        0.30000000000000027      1.1270205631974302
-0.7739947921196443       0.30000000000000027      1.1337259502739443
-0.7969448247204477       0.30000000000000027      1.1000000000000016
-0.7471516254871325       0.30000000000000027      1.1000000000000016
-0.8138364447844092       0.28004083655668377      1.1000000000000008
-0.8170756789096097       0.2539168078940497       1.1000000000000008
-0.7396591664886963       0.2694436241773016       1.1000000000000008
-0.7914626875518979       0.26308489578166194      1.1000000000000008
-0.7689895458330287       0.2724204145907857       1.1000000000000008
-0.8165535414982995       0.2145212632979944       1.1000000000000008
-0.8074252423963233       0.23095832530018118      1.1000000000000008
-0.7489641243581734       0.25263974914286214      1.1000000000000008
-0.7327790502911008       0.25066707827527324      1.1000000000000008
-0.7717412020393709       0.235088953295222        1.1000000000000008
-0.7401365947157067       0.23345715048614063      1.1000000000000008
-0.8833334000000005       -0.15000000000000047     0.4550000000000006
-0.8833334000000005       -0.15000000000000044     0.4930000000000012
-0.8833334000000005       -0.09000000000000107     0.4550000000000006
-0.8833334000000005       -0.09000000000000105     0.4930000000000012
-0.8833334000000005       -0.15000000000000047     0.5310000000000012
-0.8833334000000005       -0.09000000000000107     0.5310000000000012
-0.8833334000000005       -0.030000000000001067    0.4550000000000006
-0.8833334000000005       -0.03000000000000107     0.4930000000000012
-0.8833334000000005       -0.15000000000000047     0.5690000000000012
-0.8833334000000005       -0.09000000000000107     0.5690000000000012
-0.8833334000000005       0.029999999999998944     0.4550000000000006
-0.8833334000000005       0.02999999999999893      0.4930000000000012
-0.8833334000000005       -0.030000000000001092    0.5310000000000012
-0.8833334000000005       -0.15000000000000047     0.6070000000000012
-0.8833334000000005       -0.09000000000000107     0.6070000000000012
-0.8833334000000005       -0.03000000000000107     0.5690000000000012
-0.8833334000000005       -0.15000000000000047     0.6450000000000014
-0.8833334000000005       -0.09000000000000107     0.6450000000000014
-0.8833334000000005       0.08999999999999901      0.4550000000000006
-0.8833334000000005       0.08999999999999904      0.4930000000000012
-0.8833334000000005       0.02999999999999893      0.5310000000000012