% Model:              Foc3_Ansys_materials_9.mph
% Version:            COMSOL 6.2.0.339
% Date:               Oct 7 2024, 19:02
% Dimension:          3
% Nodes:              4072
% Elements:           7371
% Expressions:        1
% Description:        Material settings
% Length unit:        m
% Coordinates
-0.9333334000000001       -0.349739808997858       0.10883883476483205
-0.9333334000000001       -0.3850951480571849      0.144194173824159
-0.9333334000000001       -0.32322330470336286     0.13535533905932723
-0.9333334000000001       -0.3585786437626898      0.17071067811865417
-0.9333334000000001       -0.3762563132923535      0.08232233047033652
-0.9333334000000001       -0.4116116523516804      0.1176776695296635
-0.9333334000000001       -0.42045048711651223     0.17954951288348642
-0.9333334000000001       -0.3939339828220172      0.2060660171779816
-0.9333334000000001       -0.4027728175868491      0.05580582617584097
-0.9333334000000001       -0.438128156646176       0.09116116523516796
-0.9333334000000001       -0.4469669914110078      0.15303300858899083
-0.9333334000000001       -0.4558058261758395      0.2149048519428137
-0.9333334000000001       -0.42928932188134455     0.241421356237309
-0.9333334000000001       -0.4292893218813446      0.029289321881345406
-0.9333334000000001       -0.4646446609406716      0.06464466094067237
-0.9333334000000001       -0.47348349570550347     0.1265165042944953
-0.9333334000000001       -0.49116116523516706     0.25026019100214125
-0.9333334000000001       -0.464644660940672       0.2767766952966364
-0.9333334000000001       -0.4823223304703351      0.18838834764831824
-0.9333334000000001       -0.49999999999999895     0.09999999999999976
-0.9333334000000001       -0.5088388347648308      0.16187184335382268
-0.9333334000000001       -0.5176776695296627      0.2237436867076457
-0.9333334000000001       -0.5353553390593263      0.13535533905932717
-0.9333334000000001       -0.5441941738241581      0.19722718241315013
-0.9333334000000001       -0.5707106781186537      0.1707106781186546
-0.8333334                -0.49116116523516706     0.25026019100214125
-0.8333334                -0.464644660940672       0.2767766952966364
-0.8333334                -0.5176776695296627      0.2237436867076457
-0.8333334                -0.5441941738241581      0.19722718241315013
-0.8333334                -0.5707106781186537      0.1707106781186546
-0.8333334                -0.4292893218813446      0.029289321881345406
-0.8333334                -0.4646446609406716      0.06464466094067237
-0.8333334                -0.49999999999999895     0.09999999999999976
-0.8333334                -0.5353553390593263      0.13535533905932717
-0.8333334                -0.32322330470336286     0.13535533905932723
-0.8333334                -0.3585786437626898      0.17071067811865417
-0.8333334                -0.3939339828220172      0.2060660171779816
-0.8333334                -0.42928932188134455     0.241421356237309
-0.8333334                -0.349739808997858       0.10883883476483205
-0.8333334                -0.3762563132923535      0.08232233047033652
-0.8333334                -0.4027728175868491      0.05580582617584097
-0.9333334000000004       -0.35857864376269116     0.929289321881346
-0.9333334000000004       -0.3850951480571863      0.9558058261758411
-0.9333334000000004       -0.32322330470336375     0.9646446609406734
-0.9333334000000004       -0.3497398089978589      0.9911611652351684
-0.9333334000000004       -0.4116116523516818      0.9823223304703365
-0.9333334000000004       -0.37625631329235437     1.0176776695296639
-0.9333334000000004       -0.3939339828220186      0.8939339828220186
-0.9333334000000004       -0.4204504871165136      0.9204504871165138
-0.9333334000000004       -0.4381281566461774      1.0088388347648323
-0.9333334000000004       -0.40277281758684985     1.0441941738241596
-0.9333334000000004       -0.46464466094067286     1.0353553390593278
-0.9333334000000004       -0.4292893218813454      1.070710678118655
-0.9333334000000004       -0.44696699141100926     0.9469669914110093
-0.9333334000000004       -0.429289321881346       0.8585786437626912
-0.9333334000000004       -0.4558058261758411      0.8850951480571864
-0.9333334000000004       -0.47348349570550485     0.9734834957055046
-0.9333334000000004       -0.5000000000000002      1.0000000000000002
-0.9333334000000004       -0.4823223304703365      0.911611652351682
-0.9333334000000004       -0.46464466094067297     0.8232233047033642
-0.9333334000000004       -0.49116116523516806     0.8497398089978593
-0.9333334000000004       -0.5088388347648322      0.9381281566461775
-0.9333334000000004       -0.5353553390593276      0.964644660940673
-0.9333334000000004       -0.5176776695296635      0.8762563132923549
-0.9333334000000004       -0.5441941738241591      0.9027728175868505
-0.9333334000000004       -0.5707106781186546      0.929289321881346
-0.8333334000000003       -0.46464466094067297     0.8232233047033642
-0.8333334000000003       -0.49116116523516806     0.8497398089978593
-0.8333334000000003       -0.5176776695296635      0.8762563132923549
-0.8333334000000003       -0.5441941738241591      0.9027728175868505
-0.8333334000000003       -0.5707106781186546      0.929289321881346
-0.8333334000000003       -0.46464466094067286     1.0353553390593278
-0.8333334000000003       -0.4292893218813454      1.070710678118655
-0.8333334000000003       -0.5000000000000002      1.0000000000000002
-0.8333334000000003       -0.5353553390593276      0.964644660940673
-0.8333334000000003       -0.35857864376269116     0.929289321881346
-0.8333334000000003       -0.32322330470336375     0.9646446609406734
-0.8333334000000003       -0.3939339828220186      0.8939339828220186
-0.8333334000000003       -0.429289321881346       0.8585786437626912
-0.8333334000000003       -0.3497398089978589      0.9911611652351684
-0.8333334000000003       -0.37625631329235437     1.0176776695296639
-0.8333334000000003       -0.40277281758684985     1.0441941738241596
-0.9333334000000004       0.4292893218813413       0.0292893218813471
-0.9333334000000004       0.4027728175868461       0.05580582617584298
-0.9333334000000004       0.46464466094066914      0.06464466094067409
-0.9333334000000004       0.43812815664617405      0.09116116523517002
-0.9333334000000004       0.3762563132923509       0.08232233047033886
-0.9333334000000004       0.41161165235167874      0.11767766952966591
-0.9333334000000004       0.49999999999999695      0.10000000000000105
-0.9333334000000004       0.4734834957055018       0.12651650429449693
-0.9333334000000004       0.5353553390593248       0.135355339059328
-0.9333334000000004       0.5088388347648296       0.16187184335382393
-0.9333334000000004       0.3497398089978557       0.10883883476483472
-0.9333334000000004       0.3850951480571835       0.1441941738241617
-0.9333334000000004       0.4469669914110066       0.15303300858899277
-0.9333334000000004       0.5707106781186522       0.17071067811865454
-0.9333334000000004       0.5441941738241569       0.1972271824131504
-0.9333334000000004       0.4823223304703344       0.18838834764831977
-0.9333334000000004       0.32322330470336086      0.13535533905933014
-0.9333334000000004       0.35857864376268866      0.17071067811865712
-0.9333334000000004       0.42045048711651134      0.17954951288348864
-0.9333334000000004       0.5176776695296618       0.2237436867076463
-0.9333334000000004       0.45580582617583915      0.21490485194281564
-0.9333334000000004       0.39393398282201647      0.2060660171779841
-0.9333334000000004       0.4911611652351665       0.25026019100214214
-0.9333334000000004       0.4292893218813443       0.24142135623731106
-0.9333334000000004       0.4646446609406717       0.27677669529663756
-0.8333334000000003       0.4292893218813413       0.0292893218813471
-0.8333334000000003       0.4027728175868461       0.05580582617584298
-0.8333334000000003       0.3762563132923509       0.08232233047033886
-0.8333334000000003       0.3497398089978557       0.10883883476483472
-0.8333334000000003       0.32322330470336086      0.13535533905933014
-0.8333334000000003       0.35857864376268866      0.17071067811865712
-0.8333334000000003       0.39393398282201647      0.2060660171779841
-0.8333334000000003       0.4292893218813443       0.24142135623731106
-0.8333334000000003       0.4646446609406717       0.27677669529663756
-0.8333334000000003       0.46464466094066914      0.06464466094067409
-0.8333334000000003       0.49999999999999695      0.10000000000000105
-0.8333334000000003       0.5353553390593248       0.135355339059328
-0.8333334000000003       0.5707106781186522       0.17071067811865454
-0.8333334000000003       0.5441941738241569       0.1972271824131504
-0.8333334000000003       0.5176776695296618       0.2237436867076463
-0.8333334000000003       0.4911611652351665       0.25026019100214214
-0.9333334000000001       0.464644660940672        0.8232233047033636
-0.9333334000000001       0.42928932188134455      0.858578643762691
-0.9333334000000001       0.49116116523516706      0.8497398089978588
-0.9333334000000001       0.4558058261758397       0.8850951480571864
-0.9333334000000001       0.5176776695296627       0.8762563132923544
-0.9333334000000001       0.48232233047033524      0.9116116523516817
-0.9333334000000001       0.3939339828220172       0.8939339828220185
-0.9333334000000001       0.42045048711651223      0.9204504871165138
-0.9333334000000001       0.5441941738241581       0.9027728175868499
-0.9333334000000001       0.5088388347648306       0.9381281566461775
-0.9333334000000001       0.4469669914110078       0.9469669914110093
-0.9333334000000001       0.3585786437626898       0.9292893218813458
-0.9333334000000001       0.3850951480571849       0.9558058261758409
-0.9333334000000001       0.5707106781186537       0.9292893218813455
-0.9333334000000001       0.5353553390593263       0.9646446609406729
-0.9333334000000001       0.47348349570550324      0.9734834957055051
-0.9333334000000001       0.4116116523516804       0.9823223304703365
-0.9333334000000001       0.32322330470336286      0.9646446609406728
-0.9333334000000001       0.349739808997858        0.991161165235168
-0.9333334000000001       0.49999999999999895      1.0000000000000002
-0.9333334000000001       0.438128156646176        1.0088388347648323
-0.9333334000000001       0.3762563132923535       1.0176776695296634
-0.9333334000000001       0.4646446609406716       1.0353553390593278
-0.9333334000000001       0.4027728175868491       1.0441941738241591
-0.9333334000000001       0.4292893218813446       1.0707106781186546
-0.8333334                0.32322330470336286      0.9646446609406728
-0.8333334                0.349739808997858        0.991161165235168
-0.8333334                0.3762563132923535       1.0176776695296634
-0.8333334                0.4027728175868491       1.0441941738241591
-0.8333334                0.4292893218813446       1.0707106781186546
-0.8333334                0.464644660940672        0.8232233047033636
-0.8333334                0.42928932188134455      0.858578643762691
-0.8333334                0.3939339828220172       0.8939339828220185
-0.8333334                0.3585786437626898       0.9292893218813458
-0.8333334                0.5707106781186537       0.9292893218813455
-0.8333334                0.5353553390593263       0.9646446609406729
-0.8333334                0.49999999999999895      1.0000000000000002
-0.8333334                0.4646446609406716       1.0353553390593278
-0.8333334                0.49116116523516706      0.8497398089978588
-0.8333334                0.5176776695296627       0.8762563132923544
-0.8333334                0.5441941738241581       0.9027728175868499
-0.8851496432702598       0.2325000000000002       1.2330496361906609
-0.8588996432702597       0.21500000000000016      1.2482050807568885
-0.9401496432702598       0.2325000000000002       1.3283124306069494
-0.9138996432702599       0.21500000000000016      1.343467875173177
-0.8851496432702598       0.2675000000000002       1.2330496361906609
-0.9401496432702598       0.2675000000000002       1.3283124306069494
-0.8588996432702597       0.28500000000000025      1.2482050807568885
-0.9138996432702599       0.28500000000000025      1.343467875173177
-0.8326496432702597       0.2325000000000002       1.2633605253231164
-0.8326496432702597       0.26750000000000024      1.2633605253231164
-0.8876496432702599       0.2325000000000002       1.3586233197394046
-0.8876496432702599       0.26750000000000024      1.3586233197394046
-0.915511404335727        0.2518609727167794       1.3425373244881602
-0.8588996432702597       0.21500000000000016      1.2482050807568885
-0.8605114043357268       0.2518609727167794       1.2472745300718717
-0.8326496432702597       0.2325000000000002       1.2633605253231164
-0.8326496432702597       0.26750000000000024      1.2633605253231164
-0.8588996432702597       0.28500000000000025      1.2482050807568885
-0.8851496432702598       0.2325000000000002       1.2330496361906609
-0.8851496432702598       0.2675000000000002       1.2330496361906609
-0.8310684269189632       0.2200000000000003       1.1000000000000014
-0.9022009134594817       0.22000000000000022      1.2232050807568884
-0.8310684269189632       0.24000000000000027      1.1000000000000014
-0.9022009134594817       0.24000000000000024      1.2232050807568884
-0.8310684269189632       0.20000000000000018      1.1000000000000014
-0.9022009134594817       0.20000000000000018      1.2232050807568884
-0.8310684269189632       0.2600000000000003       1.1000000000000014
-0.9022009134594817       0.26000000000000023      1.2232050807568884
-0.8310684269189632       0.2800000000000003       1.1000000000000014
-0.9022009134594817       0.28000000000000025      1.2232050807568884
-0.8310684269189632       0.30000000000000027      1.1000000000000014
-0.9022009134594817       0.30000000000000027      1.2232050807568884
-0.884880405383793        0.20000000000000018      1.2332050807568884
-0.884880405383793        0.22000000000000025      1.2332050807568884
-0.884880405383793        0.24000000000000027      1.2332050807568884
-0.8675598973081041       0.20000000000000018      1.2432050807568884
-0.8675598973081042       0.22000000000000025      1.2432050807568884
-0.884880405383793        0.28000000000000025      1.2332050807568884
-0.884880405383793        0.30000000000000027      1.2332050807568884
-0.8675598973081042       0.28000000000000025      1.2432050807568884
-0.8675598973081041       0.30000000000000027      1.2432050807568884
-0.884880405383793        0.26000000000000023      1.2332050807568884
-0.8502393892324153       0.20000000000000018      1.2532050807568886
-0.8502393892324154       0.22000000000000025      1.2532050807568889
-0.8675598973081042       0.24000000000000027      1.2432050807568884
-0.8329188811567265       0.20000000000000018      1.2632050807568886
-0.8329188811567267       0.22000000000000025      1.2632050807568886
-0.8155983730810379       0.20000000000000018      1.2732050807568889
-0.8155983730810379       0.22000000000000022      1.2732050807568889
-0.8502393892324154       0.28000000000000025      1.2532050807568889
-0.8502393892324153       0.30000000000000027      1.2532050807568886
-0.8675598973081042       0.26000000000000023      1.2432050807568884
-0.8502393892324154       0.24000000000000027      1.2532050807568889
-0.8329188811567267       0.24000000000000027      1.2632050807568886
-0.8155983730810379       0.24000000000000024      1.2732050807568889
-0.8329188811567267       0.28000000000000025      1.2632050807568886
-0.8329188811567265       0.30000000000000027      1.2632050807568886
-0.8155983730810379       0.28000000000000025      1.2732050807568889
-0.8155983730810379       0.30000000000000027      1.2732050807568889
-0.8502393892324154       0.26000000000000023      1.2532050807568889
-0.8329188811567267       0.26000000000000023      1.2632050807568886
-0.8155983730810379       0.26000000000000023      1.2732050807568889
-0.807974416151378        0.20000000000000018      1.1000000000000008
-0.784880405383793        0.20000000000000018      1.1000000000000008
-0.7617863946162079       0.20000000000000018      1.1000000000000008
-0.7386923838486229       0.20000000000000018      1.1000000000000008
-0.7155983730810378       0.20000000000000018      1.1000000000000008
-0.8079744161513783       0.30000000000000027      1.1000000000000016
-0.7848804053837932       0.30000000000000027      1.1000000000000016
-0.7617863946162081       0.30000000000000027      1.1000000000000016
-0.738692383848623        0.30000000000000027      1.1000000000000016
-0.7155983730810378       0.30000000000000027      1.1000000000000008
-0.7155983730810378       0.22000000000000022      1.1000000000000008
-0.7155983730810378       0.24000000000000024      1.1000000000000008
-0.7155983730810378       0.28000000000000025      1.1000000000000008
-0.7155983730810378       0.26000000000000023      1.1000000000000008
-0.814618716712353        0.23062835503158297      1.1000000000000008
-0.8157835397174741       0.2148896861489463       1.1000000000000008
-0.8092398140275171       0.2551208943779308       1.1000000000000008
-0.7983912488709035       0.21835874001527542      1.1000000000000008
-0.7972006411164896       0.23453519260926675      1.1000000000000008
-0.7774945873298268       0.22655942905792353      1.1000000000000008
-0.7843958557143803       0.25198803994578645      1.1000000000000008
-0.8190593501076536       0.2717686068915472       1.1000000000000008
-0.7387859218530026       0.2372034013270785       1.1000000000000008
-0.7329863705579077       0.22003341160091155      1.1000000000000008
-0.7534125911942059       0.22285249231038384      1.1000000000000008
-0.7995272086222501       0.27832553607295113      1.1000000000000008
-0.7747215292885614       0.2778599721007304       1.1000000000000008
-0.8178930889621769       0.28584733587206385      1.1000000000000008
-0.7570454385985255       0.25232512723734213      1.1000000000000008
-0.7528025006157145       0.2822769992301524       1.1000000000000008
-0.7350550256024411       0.2699997230153596       1.1000000000000008
-0.7310634015534699       0.28640089591755125      1.1000000000000008
-0.7312406656108699       0.25136843787125146      1.1000000000000008
-0.8833334000000005       0.07499999999999898      0.4550000000000006
-0.8833334000000005       0.07499999999999901      0.5025000000000013
-0.8833334000000005       0.14999999999999905      0.4550000000000006
-0.8833334000000005       0.14999999999999905      0.5025000000000012
-0.8833334000000005       0.07499999999999901      0.5500000000000012
-0.8833334000000005       0.14999999999999905      0.5500000000000012
-0.8833334000000005       -1.0547118733938991E-15  0.4550000000000006
-0.8833334000000005       -1.0547118733938991E-15  0.5025000000000013
-0.8833334000000005       0.07499999999999901      0.5975000000000011
-0.8833334000000005       0.14999999999999905      0.5975000000000013
-0.8833334000000005       -1.0547118733938991E-15  0.5500000000000012
-0.8833334000000005       -0.07500000000000107     0.4550000000000006
-0.8833334000000005       -0.07500000000000107     0.5025000000000013
-0.8833334000000005       0.07499999999999898      0.6450000000000014
-0.8833334000000005       0.14999999999999905      0.6450000000000014
-0.8833334000000005       -1.0408340855860847E-15  0.5975000000000013
-0.8833334000000005       -0.07500000000000107     0.5500000000000012
-0.8833334000000005       -0.15000000000000047     0.4550000000000006
-0.8833334000000005       -0.15000000000000047     0.5025000000000013
-0.8833334000000005       -1.0547118733938991E-15  0.6450000000000014
-0.8833334000000005       -0.07500000000000107     0.5975000000000013
-0.8833334000000005       -0.15000000000000047     0.5500000000000012
-0.8833334000000005       -0.07500000000000104     0.6450000000000014
-0.8833334000000005       -0.15000000000000047     0.5975000000000013
-0.8833334000000005       -0.15000000000000047     0.6450000000000014
-0.8333334000000003       -0.15000000000000047     0.4550000000000006
-0.8333334000000003       -0.15000000000000047     0.5025000000000013
-0.8333334000000003       -0.15000000000000047     0.5500000000000012
-0.8333334000000003       -0.15000000000000047     0.5975000000000013
-0.8333334000000003       -0.15000000000000047     0.6450000000000014
-0.8333334000000003       0.07499999999999898      0.4550000000000006
-0.8333334000000003       0.14999999999999905      0.4550000000000006
-0.8333334000000003       -1.0547118733938991E-15  0.4550000000000006
-0.8333334000000003       -0.07500000000000107     0.4550000000000006
-0.8333334000000003       0.07499999999999898      0.6450000000000014
-0.8333334000000003       0.14999999999999905      0.6450000000000014
-0.8333334000000003       -1.0547118733938991E-15  0.6450000000000014
-0.8333334000000003       -0.07500000000000104     0.6450000000000014
-0.8333334000000003       0.14999999999999905      0.5025000000000012
-0.8333334000000003       0.14999999999999905      0.5500000000000012
-0.8333334000000003       0.14999999999999905      0.5975000000000013
-0.8833334000000005       -0.03250000000000062     0.7675000000000014
-0.8833334000000005       -0.03250000000000062     0.832500000000001
-0.8833334000000005       0.032499999999999016     0.7675000000000014
-0.8833334000000005       0.032499999999999016     0.832500000000001
-0.8333334000000003       -0.03250000000000062     0.7675000000000014
-0.8333334000000003       -0.03250000000000062     0.832500000000001
-0.8333334000000003       0.032499999999999016     0.7675000000000014
-0.8333334000000003       0.032499999999999016     0.832500000000001
-0.8833334000000004       -0.03250000000000057     0.9175000000000044
-0.8833334000000004       -0.03250000000000057     0.9825000000000041
-0.8833334000000004       0.03249999999999907      0.9175000000000044
-0.8833334000000004       0.03249999999999907      0.9825000000000041
-0.8333334000000003       -0.03250000000000062     0.9175000000000044
-0.8333334000000003       -0.03250000000000062     0.9825000000000041
-0.8333334000000002       0.032499999999999016     0.9825000000000041
-0.8333334000000002       0.032499999999999016     0.9175000000000044
-0.8333334000000002       -1.0338951916821774E-15  0.9175000000000044
-0.8533334000000002       -9.181784197001257E-16   0.9175000000000044
-0.8333334000000003       -0.5200000000000001      0.14666666666666667
-0.8333334000000003       -0.5200000000000001      0.1833333333333335
-0.8333334000000003       -0.4800000000000001      0.1466666666666666
-0.8333334000000003       -0.4800000000000001      0.18333333333333338
-0.8333334000000003       -0.5200000000000001      0.11000000000000006
-0.8333334000000003       -0.4800000000000001      0.11000000000000006
-0.8333334000000003       -0.5600000000000002      0.11000000000000006
-0.8333334000000003       -0.56                    0.14666666666666667
-0.8333334000000003       -0.6000000000000002      0.07333333333333335
-0.8333334000000003       -0.6000000000000002      0.11000000000000004
-0.8333334000000003       -0.5600000000000002      0.07333333333333322
-0.8333334000000003       -0.5600000000000002      0.18333333333333343
-0.8333334000000003       -0.4400000000000002      0.14666666666666667
-0.8333334000000003       -0.4400000000000002      0.18333333333333338
-0.8333334000000003       -0.5200000000000001      0.2200000000000001
-0.8333334000000003       -0.48                    0.2200000000000001
-0.8333334000000003       -0.5200000000000001      0.07333333333333328
-0.8333334000000003       -0.6000000000000002      0.036666666666666674
-0.8333334000000003       -0.5600000000000002      0.03666666666666653
-0.8333334000000003       -0.4800000000000001      0.07333333333333333
-0.8333334000000003       -0.4400000000000003      0.11000000000000006
-0.8333334000000003       -0.4000000000000001      0.1100000000000001
-0.8333334000000003       -0.4000000000000001      0.14666666666666667
-0.8333334000000003       -0.5600000000000002      0.2200000000000001
-0.8333334000000003       -0.6000000000000002      0.1466666666666667
-0.8333334000000003       -0.6000000000000002      0.18333333333333343
-0.8333334000000003       -0.5600000000000002      0.25666666666666665
-0.8333334000000003       -0.5200000000000001      0.25666666666666677
-0.8333334000000003       -0.4000000000000001      0.18333333333333338
-0.8333334000000003       -0.4400000000000003      0.2200000000000001
-0.8333334000000003       -0.4800000000000002      0.25666666666666677
-0.8333334000000003       -0.5200000000000002      0.03666666666666664
-0.8333334000000003       -0.6000000000000002      0
-0.8333334000000003       -0.5600000000000002      -3.70074341541719E-18
-0.8333334000000003       -0.4800000000000001      0.03666666666666653
-0.8333334000000003       -0.4400000000000003      0.07333333333333322
-0.8333334000000003       -0.40000000000000013     0.07333333333333328
-0.8333334000000003       -0.36                    0.11000000000000006
-0.8333334000000003       -0.36000000000000004     0.1466666666666666
-0.8333334000000003       -0.5600000000000002      0.2933333333333335
-0.8333334000000003       -0.5200000000000002      0.2933333333333335
-0.8333334000000003       -0.6000000000000002      0.22000000000000008
-0.8333334000000003       -0.6000000000000002      0.25666666666666677
-0.8333334000000003       -0.36000000000000004     0.18333333333333338
-0.8333334000000003       -0.4000000000000001      0.2200000000000001
-0.8333334000000003       -0.4400000000000003      0.2566666666666667
-0.8333334000000003       -0.4800000000000002      0.2933333333333335
-0.8333334000000003       -0.5200000000000001      -7.401486830834383E-18
-0.8333334000000003       -0.48000000000000015     -1.1102230246251572E-17
-0.8333334000000003       -0.4400000000000002      0.03666666666666664
-0.8333334000000003       -0.4000000000000001      0.03666666666666664
-0.8333334000000003       -0.36000000000000004     0.07333333333333322
-0.8333334000000003       -0.32                    0.11000000000000006
-0.8333334000000003       -0.32000000000000006     0.14666666666666667
-0.8333334000000003       -0.2799999999999999      0.11000000000000006
-0.8333334000000003       -0.28                    0.14666666666666656
-0.8333334000000003       -0.32000000000000006     0.18333333333333343
-0.8333334000000003       -0.5600000000000002      0.33000000000000024
-0.8333334000000003       -0.5200000000000001      0.3300000000000001
-0.8333334000000003       -0.6000000000000002      0.29333333333333345
-0.8333334000000003       -0.36                    0.2200000000000001
-0.8333334000000003       -0.4000000000000001      0.2566666666666668
-0.8333334000000003       -0.4400000000000003      0.2933333333333335
-0.8333334000000003       -0.4800000000000001      0.3300000000000002
-0.8333334000000003       -0.5600000000000002      0.36666666666666686
-0.8333334000000003       -0.5200000000000001      0.36666666666666686
-0.8333334000000003       -0.44000000000000017     -1.4802973661668763E-17
-0.8333334000000003       -0.4000000000000001      -1.8503717077085957E-17
-0.8333334000000003       -0.36                    0.03666666666666664
-0.8333334000000003       -0.32000000000000006     0.07333333333333322
-0.8333334000000003       -0.2799999999999999      0.07333333333333328
-0.8333334000000003       -0.2399999999999999      0.11000000000000006
-0.8333334000000003       -0.23999999999999985     0.14666666666666667
-0.8333334000000003       -0.27999999999999986     0.18333333333333343
-0.8333334000000003       -0.32000000000000023     0.2200000000000001
-0.8333334000000003       -0.6000000000000002      0.3300000000000001
-0.8333334000000003       -0.6000000000000002      0.36666666666666686
-0.8333334000000003       -0.36000000000000004     0.25666666666666677
-0.8333334000000003       -0.4000000000000001      0.2933333333333335
-0.8333334000000003       -0.4400000000000002      0.3300000000000002
-0.8333334000000003       -0.4800000000000002      0.3666666666666668
-0.8333334000000003       -0.56                    0.4033333333333335
-0.8333334000000003       -0.5200000000000001      0.4033333333333335
-0.8333334000000003       -0.36000000000000004     -2.2204460492503144E-17
-0.8333334000000003       -0.3200000000000001      0.03666666666666664
-0.8333334000000003       -0.2799999999999999      0.03666666666666653
-0.8333334000000003       -0.23999999999999996     0.07333333333333317
-0.8333334000000003       -0.19999999999999982     0.11000000000000006
-0.8333334000000003       -0.19999999999999982     0.14666666666666667
-0.8333334000000003       -0.24                    0.1833333333333335
-0.8333334000000003       -0.2799999999999999      0.2200000000000001
-0.8333334000000003       -0.32000000000000006     0.25666666666666677
-0.8333334000000003       -0.6000000000000002      0.4033333333333335
-0.8333334000000003       -0.6000000000000002      0.44000000000000017
-0.8333334000000003       -0.5600000000000002      0.4400000000000002
-0.8333334000000003       -0.36000000000000004     0.29333333333333345
-0.8333334000000003       -0.4000000000000001      0.33000000000000024
-0.8333334000000003       -0.4400000000000001      0.36666666666666686
-0.8333334000000003       -0.4800000000000001      0.4033333333333334
-0.8333334000000003       -0.5200000000000001      0.4400000000000002
-0.8333334000000003       -0.19999999999999984     0.07333333333333322
-0.8333334000000003       -0.32                    -2.5905203907920338E-17
-0.8333334000000003       -0.27999999999999997     -2.9605947323337526E-17
-0.8333334000000003       -0.23999999999999996     0.03666666666666664