% Model:              Foc3_Ansys_materials_7.mph
% Version:            COMSOL 6.2.0.339
% Date:               Sep 26 2024, 13:34
% Dimension:          3
% Nodes:              3395
% Elements:           6340
% Expressions:        1
% Description:        Material settings
% Length unit:        m
% Coordinates
-0.9333334000000001       -0.49999999999999895     0.09999999999999976
-0.9333334000000001       -0.5707106781186537      0.1707106781186546
-0.9333334000000001       -0.4469669914110079      0.15303300858899083
-0.9333334000000001       -0.5176776695296627      0.2237436867076457
-0.9333334000000001       -0.4292893218813446      0.029289321881345406
-0.9333334000000001       -0.3762563132923535      0.08232233047033652
-0.9333334000000001       -0.3939339828220172      0.2060660171779816
-0.9333334000000001       -0.464644660940672       0.2767766952966364
-0.9333334000000001       -0.32322330470336286     0.13535533905932723
-0.8333334                -0.5707106781186537      0.1707106781186546
-0.8333334                -0.5176776695296627      0.2237436867076457
-0.8333334                -0.464644660940672       0.2767766952966364
-0.8333334                -0.49999999999999895     0.09999999999999976
-0.8333334                -0.4292893218813446      0.029289321881345406
-0.8333334                -0.3939339828220172      0.2060660171779816
-0.8333334                -0.32322330470336286     0.13535533905932723
-0.8333334                -0.3762563132923535      0.08232233047033652
-0.8333334                -0.4698725177695325      0.17595930111028626
-0.8333334                -0.4349920607502385      0.1123477962719684
-0.8333334                -0.4043026349499066      0.14210159762715838
-0.9333334000000004       -0.4469669914110092      0.9469669914110092
-0.9333334000000004       -0.5000000000000002      1.0000000000000002
-0.9333334000000004       -0.37625631329235437     1.0176776695296639
-0.9333334000000004       -0.4292893218813454      1.070710678118655
-0.9333334000000004       -0.5176776695296635      0.8762563132923549
-0.9333334000000004       -0.5707106781186546      0.929289321881346
-0.9333334000000004       -0.3939339828220186      0.8939339828220186
-0.9333334000000004       -0.32322330470336375     0.9646446609406734
-0.9333334000000004       -0.46464466094067297     0.8232233047033642
-0.8333334000000003       -0.5176776695296635      0.8762563132923549
-0.8333334000000003       -0.5707106781186546      0.929289321881346
-0.8333334000000003       -0.46464466094067297     0.8232233047033642
-0.8333334000000003       -0.5000000000000002      1.0000000000000002
-0.8333334000000003       -0.4292893218813454      1.070710678118655
-0.8333334000000003       -0.3939339828220186      0.8939339828220186
-0.8333334000000003       -0.32322330470336375     0.9646446609406734
-0.8333334000000003       -0.37625631329235437     1.0176776695296639
-0.8333334000000003       -0.4240406988897138      0.9698725177695336
-0.8333334000000003       -0.4876522037280315      0.93499206075024
-0.8333334000000003       -0.45789840237284174     0.9043026349499083
-0.9333334000000004       0.4469669914110066       0.15303300858899282
-0.9333334000000004       0.39393398282201647      0.2060660171779841
-0.9333334000000004       0.5176776695296618       0.2237436867076463
-0.9333334000000004       0.4646446609406717       0.27677669529663756
-0.9333334000000004       0.3762563132923509       0.08232233047033886
-0.9333334000000004       0.32322330470336086      0.13535533905933014
-0.9333334000000004       0.49999999999999695      0.10000000000000105
-0.9333334000000004       0.5707106781186522       0.17071067811865454
-0.9333334000000004       0.4292893218813413       0.0292893218813471
-0.8333334000000003       0.3762563132923509       0.08232233047033886
-0.8333334000000003       0.32322330470336086      0.13535533905933014
-0.8333334000000003       0.4292893218813413       0.0292893218813471
-0.8333334000000003       0.39393398282201647      0.2060660171779841
-0.8333334000000003       0.4646446609406717       0.27677669529663756
-0.8333334000000003       0.49999999999999695      0.10000000000000105
-0.8333334000000003       0.5707106781186522       0.17071067811865454
-0.8333334000000003       0.5176776695296618       0.2237436867076463
-0.8333334000000003       0.4698675736683328       0.17596110799356485
-0.8333334000000003       0.40363088936908975      0.1406272187919238
-0.8333334000000003       0.4344152062957683       0.10979435422293884
-0.9333334000000001       0.3939339828220172       0.8939339828220185
-0.9333334000000001       0.32322330470336286      0.9646446609406728
-0.9333334000000001       0.4469669914110078       0.9469669914110093
-0.9333334000000001       0.3762563132923535       1.0176776695296634
-0.9333334000000001       0.464644660940672        0.8232233047033636
-0.9333334000000001       0.5176776695296627       0.8762563132923544
-0.9333334000000001       0.49999999999999895      1.0000000000000002
-0.9333334000000001       0.4292893218813446       1.0707106781186546
-0.9333334000000001       0.5707106781186537       0.9292893218813455
-0.8333334                0.32322330470336286      0.9646446609406728
-0.8333334                0.3762563132923535       1.0176776695296634
-0.8333334                0.4292893218813446       1.0707106781186546
-0.8333334                0.3939339828220172       0.8939339828220185
-0.8333334                0.464644660940672        0.8232233047033636
-0.8333334                0.49999999999999895      1.0000000000000002
-0.8333334                0.5707106781186537       0.9292893218813455
-0.8333334                0.5176776695296627       0.8762563132923544
-0.8333334                0.4240388920064355       0.9698675736683352
-0.8333334                0.45937278120807745      0.9036308893690926
-0.8333334                0.49020564577706205      0.9344152062957715
-0.8851496432702598       0.2325000000000002       1.2330496361906609
-0.8588996432702597       0.21500000000000016      1.2482050807568885
-0.9401496432702598       0.2325000000000002       1.3283124306069494
-0.9138996432702599       0.21500000000000016      1.343467875173177
-0.8851496432702598       0.2675000000000002       1.2330496361906609
-0.9401496432702598       0.2675000000000002       1.3283124306069494
-0.8588996432702597       0.28500000000000025      1.2482050807568885
-0.9138996432702599       0.28500000000000025      1.343467875173177
-0.8326496432702597       0.2325000000000002       1.2633605253231164
-0.8326496432702597       0.26750000000000024      1.2633605253231164
-0.8876496432702599       0.2325000000000002       1.3586233197394046
-0.8876496432702599       0.26750000000000024      1.3586233197394046
-0.915511404335727        0.2518609727167794       1.3425373244881602
-0.8588996432702597       0.21500000000000016      1.2482050807568885
-0.8605114043357268       0.2518609727167794       1.2472745300718717
-0.8326496432702597       0.2325000000000002       1.2633605253231164
-0.8326496432702597       0.26750000000000024      1.2633605253231164
-0.8588996432702597       0.28500000000000025      1.2482050807568885
-0.8851496432702598       0.2325000000000002       1.2330496361906609
-0.8851496432702598       0.2675000000000002       1.2330496361906609
-0.8310684269189632       0.20000000000000018      1.1000000000000014
-0.9022009134594817       0.20000000000000018      1.2232050807568884
-0.8310684269189632       0.30000000000000027      1.1000000000000014
-0.9022009134594817       0.30000000000000027      1.2232050807568884
-0.7155983730810378       0.20000000000000018      1.1000000000000008
-0.7155983730810378       0.30000000000000027      1.1000000000000008
-0.8155983730810379       0.20000000000000018      1.2732050807568889
-0.8155983730810379       0.30000000000000027      1.2732050807568889
-0.8833334000000005       -0.15000000000000047     0.4550000000000006
-0.8833334000000005       -0.15000000000000047     0.5500000000000012
-0.8833334000000005       -1.0547118733938991E-15  0.4550000000000006
-0.8833334000000005       -1.0547118733938991E-15  0.550000000000001
-0.8833334000000005       -0.15000000000000047     0.6450000000000014
-0.8833334000000005       -1.0547118733938991E-15  0.6450000000000014
-0.8833334000000005       0.14999999999999905      0.4550000000000006
-0.8833334000000005       0.14999999999999905      0.5500000000000012
-0.8833334000000005       0.14999999999999905      0.6450000000000014
-0.8333334000000003       -0.15000000000000047     0.4550000000000006
-0.8333334000000003       -0.15000000000000047     0.5500000000000012
-0.8333334000000003       -0.15000000000000047     0.6450000000000014
-0.8333334000000003       -1.0547118733938991E-15  0.4550000000000006
-0.8333334000000003       0.14999999999999905      0.4550000000000006
-0.8333334000000003       -1.0547118733938991E-15  0.6450000000000014
-0.8333334000000003       0.14999999999999905      0.6450000000000014
-0.8333334000000003       0.14999999999999905      0.5500000000000012
-0.8333334000000003       -0.04974793367757815     0.5267003013655374
-0.8333334000000003       -0.08769040151237094     0.5806271149733274
-0.8333334000000003       0.026915586106958888     0.5488881774464475
-0.8333334000000003       0.08937032896861431      0.5273890709542929
-0.8333334000000003       0.08894218376558859      0.5711676357665614
-0.8833334000000005       -0.03250000000000062     0.7675000000000014
-0.8833334000000005       -0.03250000000000062     0.832500000000001
-0.8833334000000005       0.032499999999999016     0.7675000000000014
-0.8833334000000005       0.032499999999999016     0.832500000000001
-0.8333334000000003       -0.03250000000000062     0.7675000000000014
-0.8333334000000003       -0.03250000000000062     0.832500000000001
-0.8333334000000003       0.032499999999999016     0.7675000000000014
-0.8333334000000003       0.032499999999999016     0.832500000000001
-0.8333334000000003       -1.0061396160665485E-15  0.832500000000001
-0.8533334000000004       -8.465450562766823E-16   0.832500000000001
-0.8333334000000003       -8.326672684688678E-16   0.8065000000000012
-0.8833334000000004       -0.03250000000000057     0.9175000000000044
-0.8833334000000004       -0.03250000000000057     0.9825000000000041
-0.8833334000000004       0.03249999999999907      0.9175000000000044
-0.8833334000000004       0.03249999999999907      0.9825000000000041
-0.8333334000000003       -0.03250000000000062     0.9175000000000044
-0.8333334000000003       -0.03250000000000062     0.9825000000000041
-0.8333334000000002       0.032499999999999016     0.9175000000000044
-0.8333334000000002       0.032499999999999016     0.9825000000000041
-0.8533334000000002       -9.181784197001257E-16   0.9175000000000044
-0.8333334000000002       -1.0338951916821774E-15  0.9175000000000044
-0.8533334000000002       -8.279727989493317E-16   0.9825000000000041
-0.8333334000000002       -1.0269562977782702E-15  0.9825000000000041
-0.8333334000000002       -8.743006318923112E-16   0.9500000000000043
1.5833332666666675        -0.6000000000000002      0.8800000000000004
1.6666666000000008        -0.6000000000000002      0.8800000000000002
1.5833332666666675        -0.6000000000000002      1.1000000000000005
1.6666666000000008        -0.6000000000000002      1.1000000000000005
1.5833332666666675        -0.6000000000000002      0
1.6666666000000008        -0.6000000000000002      0
1.5833332666666675        -0.6000000000000002      0.22000000000000014
1.6666666000000008        -0.6000000000000002      0.2200000000000001
1.499999933333334         -0.6000000000000002      0
1.4999999333333343        -0.6000000000000002      0.22000000000000014
1.5833332666666675        -0.6000000000000002      0.4400000000000003
1.6666666000000008        -0.6000000000000002      0.4400000000000002
1.5833332666666675        -0.6000000000000002      0.6600000000000005
1.6666666000000008        -0.6000000000000002      0.6600000000000003
1.4999999333333343        -0.6000000000000002      0.4400000000000003
1.4999999333333343        -0.6000000000000002      0.8800000000000004
1.499999933333334         -0.6000000000000002      1.1000000000000005
1.4999999333333343        -0.6000000000000002      0.6600000000000003
1.4166666000000008        -0.6000000000000002      0.8800000000000002
1.4166666000000008        -0.6000000000000002      1.1000000000000005
1.416666600000001         -0.6000000000000002      0.22000000000000014
1.4166666000000008        -0.6000000000000002      0.4400000000000003
1.4166666000000008        -0.6000000000000002      0
1.3333332666666675        -0.6000000000000002      0
1.3333332666666677        -0.6000000000000002      0.2200000000000001
1.3333332666666677        -0.6000000000000002      0.4400000000000002
1.4166666000000008        -0.6000000000000002      0.6600000000000003
1.3333332666666677        -0.6000000000000002      0.6600000000000003
1.3333332666666677        -0.6000000000000002      0.8800000000000004
1.3333332666666675        -0.6000000000000002      1.1000000000000005
1.2499999333333338        -0.6000000000000002      0.6600000000000003
1.2499999333333338        -0.6000000000000002      0.8800000000000002
1.249999933333334         -0.6000000000000002      1.1000000000000005
1.1666666000000006        -0.6000000000000002      0.6600000000000005
1.1666666000000006        -0.6000000000000002      0.8800000000000002
1.1666666000000006        -0.6000000000000002      1.1000000000000005
1.2499999333333338        -0.6000000000000002      0.4400000000000003
1.1666666000000006        -0.6000000000000002      0.4400000000000003
1.2499999333333338        -0.6000000000000002      0.22000000000000014
1.1666666000000006        -0.6000000000000002      0.22000000000000014
1.249999933333334         -0.6000000000000002      0
1.1666666000000006        -0.6000000000000002      0
1.0833332666666673        -0.6000000000000002      0.2200000000000001
1.0833332666666673        -0.6000000000000002      0.4400000000000002
1.0833332666666673        -0.6000000000000002      0
0.9999999333333339        -0.6000000000000002      0
0.999999933333334         -0.6000000000000002      0.2200000000000001
0.999999933333334         -0.6000000000000002      0.4400000000000002
1.0833332666666673        -0.6000000000000002      0.6600000000000003
1.0833332666666673        -0.6000000000000002      0.8800000000000004
1.0833332666666673        -0.6000000000000002      1.1000000000000005
0.999999933333334         -0.6000000000000002      0.6600000000000003
0.999999933333334         -0.6000000000000002      0.8800000000000002
0.9999999333333339        -0.6000000000000002      1.1000000000000005
0.9166666000000006        -0.6000000000000002      0
0.9166666000000002        -0.6000000000000002      0.22000000000000014
0.9166666000000007        -0.6000000000000002      0.4400000000000003
0.8333332666666672        -0.6000000000000002      0
0.8333332666666672        -0.6000000000000002      0.2200000000000001
0.8333332666666672        -0.6000000000000002      0.4400000000000002
0.9166666000000007        -0.6000000000000002      0.6600000000000003
0.9166666000000007        -0.6000000000000002      0.8800000000000004
0.9166666000000006        -0.6000000000000002      1.1000000000000005
0.8333332666666672        -0.6000000000000002      0.88
0.8333332666666672        -0.6000000000000002      1.1000000000000005
0.749999933333334         -0.6000000000000002      0.88
0.7499999333333339        -0.6000000000000002      1.1000000000000005
0.6666666000000006        -0.6000000000000002      0.8800000000000004
0.6666666000000007        -0.6000000000000002      1.1000000000000005
0.5833332666666673        -0.6000000000000002      0.8800000000000002
0.5833332666666671        -0.6000000000000002      1.1000000000000005
0.8333332666666672        -0.6000000000000002      0.6600000000000003
0.749999933333334         -0.6000000000000002      0.6600000000000003
0.6666666000000006        -0.6000000000000002      0.6600000000000003
0.7499999333333339        -0.6000000000000002      0
0.7499999333333337        -0.6000000000000002      0.22000000000000014
0.7499999333333339        -0.6000000000000002      0.4400000000000003
0.6666666000000007        -0.6000000000000002      0.4400000000000003
0.6666666000000007        -0.6000000000000002      0
0.6666666000000007        -0.6000000000000002      0.22000000000000014
0.5833332666666671        -0.6000000000000002      0
0.5833332666666671        -0.6000000000000002      0.22000000000000014
0.49999993333333387       -0.6000000000000002      0.88
0.4999999333333338        -0.6000000000000002      1.1000000000000005
0.5833332666666671        -0.6000000000000002      0.6600000000000003
0.4166666000000003        -0.6000000000000002      0.8800000000000004
0.4166666000000003        -0.6000000000000002      1.1000000000000005
0.5833332666666668        -0.6000000000000002      0.4400000000000003
0.4999999333333338        -0.6000000000000002      0
0.49999993333333387       -0.6000000000000002      0.22000000000000014
0.49999993333333387       -0.6000000000000002      0.4400000000000003
0.49999993333333387       -0.6000000000000002      0.6600000000000003
0.4166666000000003        -0.6000000000000002      0
0.4166666000000003        -0.6000000000000002      0.22000000000000014
0.4166666000000003        -0.6000000000000002      0.4400000000000003
0.4166666000000003        -0.6000000000000002      0.6600000000000003
0.33333326666666724       -0.6000000000000002      0
0.33333326666666724       -0.6000000000000002      0.22000000000000014
0.24999993333333392       -0.6000000000000002      0
0.24999993333333417       -0.6000000000000002      0.2200000000000002
0.33333326666666724       -0.6000000000000002      0.4400000000000003
0.24999993333333417       -0.6000000000000002      0.4400000000000004
0.33333326666666724       -0.6000000000000002      0.6600000000000003
0.333333266666667         -0.6000000000000002      0.8800000000000004
0.33333326666666724       -0.6000000000000002      1.1000000000000005
0.24999993333333417       -0.6000000000000002      0.8800000000000004
0.24999993333333392       -0.6000000000000002      1.1000000000000005
0.16666660000000041       -0.6000000000000002      0.8800000000000004
0.16666660000000041       -0.6000000000000002      1.1000000000000005
0.16666660000000041       -0.6000000000000002      0
0.16666660000000041       -0.6000000000000002      0.22000000000000014
0.16666660000000041       -0.6000000000000002      0.4400000000000003
0.08333326666666711       -0.6000000000000002      0
0.08333326666666667       -0.6000000000000002      0.22000000000000014
0.08333326666666711       -0.6000000000000002      0.4400000000000003
-6.66666664095317E-8      -0.6000000000000002      0
-6.66666666315763E-8      -0.6000000000000002      0.22000000000000014
-0.5000000666666666       -0.6000000000000002      0
-0.4166667333333331       -0.6000000000000002      0
-0.5000000666666671       -0.6000000000000002      0.22000000000000014
-0.4166667333333331       -0.6000000000000002      0.22000000000000014
-0.3333333999999996       -0.6000000000000002      0
-0.33333339999999984      -0.6000000000000002      0.22000000000000014
-0.08333339999999971      -0.6000000000000002      0
-0.08333339999999971      -0.6000000000000002      0.22000000000000014
-0.2500000666666665       -0.6000000000000002      0
-0.2500000666666665       -0.6000000000000002      0.22000000000000014
-0.33333340000000006      -0.6000000000000002      0.4400000000000003
-0.25000006666666674      -0.6000000000000002      0.4400000000000003
-0.166666733333333        -0.6000000000000002      0
-0.166666733333333        -0.6000000000000002      0.2200000000000001
-0.5833334000000001       -0.6000000000000002      0
-0.5833334000000001       -0.6000000000000002      0.22000000000000014
0.24999993333333417       -0.6000000000000002      0.6600000000000003
0.16666660000000064       -0.6000000000000002      0.6600000000000003
0.08333326666666734       -0.6000000000000002      0.6600000000000003
0.08333326666666711       -0.6000000000000002      0.8800000000000004
-6.66666666315763E-8      -0.6000000000000002      0.6600000000000003
-6.66666666315763E-8      -0.6000000000000002      0.8800000000000006
0.08333326666666711       -0.6000000000000002      1.1000000000000005
-6.66666664095317E-8      -0.6000000000000002      1.1000000000000005
-0.4166667333333331       -0.6000000000000002      0.4400000000000003
-0.5000000666666666       -0.6000000000000002      0.4400000000000003
-0.08333339999999971      -0.6000000000000002      0.8800000000000002
-0.08333339999999971      -0.6000000000000002      1.1000000000000005
-0.6666667333333333       -0.6000000000000002      0
-0.6666667333333333       -0.6000000000000002      0.22000000000000014
-0.33333339999999984      -0.6000000000000002      0.6600000000000004
-0.25000006666666696      -0.6000000000000002      0.6600000000000004
-0.166666733333333        -0.6000000000000002      0.88
-0.166666733333333        -0.6000000000000002      1.1000000000000005
-0.08333339999999971      -0.6000000000000002      0.6600000000000003
-0.166666733333333        -0.6000000000000002      0.6600000000000003
-0.25000006666666696      -0.6000000000000002      0.8800000000000004
-0.5833334000000001       -0.6000000000000002      0.4400000000000003
-0.08333339999999971      -0.6000000000000002      0.4400000000000003
-6.66666666315763E-8      -0.6000000000000002      0.4400000000000003
-0.16666673333333323      -0.6000000000000002      0.4400000000000002
-0.7500000666666667       -0.6000000000000002      0
-0.7500000666666667       -0.6000000000000002      0.22000000000000014
-0.8333334000000003       -0.6000000000000002      0
-0.8333334000000003       -0.6000000000000002      0.2200000000000001
-0.2500000666666665       -0.6000000000000002      1.1000000000000005
-0.33333339999999984      -0.6000000000000002      0.8800000000000004
-0.4166667333333331       -0.6000000000000002      0.6600000000000003
-0.5000000666666671       -0.6000000000000002      0.6600000000000003
-0.3333333999999996       -0.6000000000000002      1.1000000000000005
-0.6666667333333333       -0.6000000000000002      0.4400000000000003
-0.5833334000000001       -0.6000000000000002      0.6600000000000003
-0.7500000666666667       -0.6000000000000002      0.4400000000000003
-0.8333334000000003       -0.6000000000000002      0.4400000000000002
-0.4166667333333331       -0.6000000000000002      0.8800000000000002
-0.4166667333333331       -0.6000000000000002      1.1000000000000005
-0.5000000666666666       -0.6000000000000002      0.8800000000000002
-0.5000000666666666       -0.6000000000000002      1.1000000000000005
-0.6666667333333333       -0.6000000000000002      0.6600000000000003
-0.5833334000000001       -0.6000000000000002      0.88
-0.7500000666666667       -0.6000000000000002      0.6600000000000003
-0.8333334000000003       -0.6000000000000002      0.6600000000000003
-0.5833334000000001       -0.6000000000000002      1.1000000000000005
-0.6666667333333333       -0.6000000000000002      0.8800000000000002
-0.6666667333333333       -0.6000000000000002      1.1000000000000005
-0.7500000666666667       -0.6000000000000002      0.8800000000000002
-0.8333334000000003       -0.6000000000000002      0.8800000000000002
-0.7500000666666667       -0.6000000000000002      1.1000000000000005
-0.8333334000000003       -0.6000000000000002      1.1000000000000005
1.5833332666666675        -0.36000000000000004     -2.220446049250314E-17
1.6666666000000008        -0.36000000000000004     -2.2204460492503144E-17
1.5833332666666675        0.36000000000000015      -8.881784197001254E-17
1.5833332666666675        0.6000000000000002       0
1.6666666000000008        0.36000000000000026      -8.881784197001255E-17
1.6666666000000008        0.6000000000000002       0
1.5833332666666675        -0.11999999999999988     -4.440892098500628E-17
1.6666666000000008        -0.11999999999999983     -4.440892098500629E-17
1.5833332666666675        0.12000000000000027      -6.661338147750941E-17
1.6666666000000008        0.12000000000000027      -6.661338147750941E-17
1.3333332666666677        -0.36000000000000004     -2.220446049250314E-17
1.4166666000000008        -0.36000000000000004     -2.2204460492503144E-17
1.4999999333333343        -0.36000000000000004     -2.2204460492503144E-17
1.4999999333333343        -0.11999999999999972     -4.44089209850063E-17
1.4999999333333343        0.3600000000000004       -8.881784197001255E-17
1.499999933333334         0.6000000000000002       0
1.4999999333333343        0.12000000000000027      -6.661338147750941E-17
1.4166666000000008        0.36000000000000026      -8.881784197001255E-17
1.4166666000000008        0.6000000000000002       0
1.3333332666666677        0.36000000000000004      -8.881784197001253E-17
1.3333332666666675        0.6000000000000002       0
1.4166666000000008        0.12000000000000005      -6.66133814775094E-17
1.3333332666666677        0.12000000000000016      -6.661338147750941E-17
1.3333332666666677        -0.11999999999999977     -4.4408920985006295E-17
1.4166666000000008        -0.11999999999999984     -4.440892098500629E-17
1.2499999333333338        -0.36000000000000004     -2.220446049250314E-17
1.1666666000000006        -0.36000000000000015     -2.2204460492503135E-17
1.0833332666666673        -0.36000000000000004     -2.2204460492503144E-17
1.2499999333333338        -0.11999999999999988     -4.440892098500628E-17
1.1666666000000006        -0.11999999999999984     -4.440892098500629E-17
1.0833332666666673        -0.11999999999999972     -4.44089209850063E-17
1.2499999333333338        0.3600000000000004       -8.881784197001255E-17
1.249999933333334         0.6000000000000002       0
1.2499999333333338        0.12000000000000027      -6.661338147750941E-17
1.1666666000000006        0.12000000000000048      -6.661338147750944E-17
1.1666666000000006        0.36000000000000015      -8.881784197001254E-17
1.1666666000000006        0.6000000000000002       0
0.999999933333334         -0.36000000000000004     -2.220446049250314E-17
0.9166666000000004        -0.36000000000000004     -2.220446049250314E-17
0.999999933333334         -0.11999999999999988     -4.440892098500628E-17
0.9166666000000004        0.3600000000000004       -8.881784197001255E-17
0.9166666000000006        0.6000000000000002       0
0.9999999333333338        0.36000000000000015      -8.881784197001254E-17
0.9999999333333339        0.6000000000000002       0
1.0833332666666673        0.36000000000000004      -8.881784197001253E-17
1.0833332666666673        0.6000000000000002       0
1.0833332666666673        0.12000000000000016      -6.661338147750941E-17
0.999999933333334         0.12000000000000027      -6.661338147750941E-17
0.9166666000000007        -0.11999999999999977     -4.4408920985006295E-17
0.8333332666666673        -0.3600000000000001      -2.2204460492503138E-17
0.8333332666666672        -0.11999999999999972     -4.44089209850063E-17
0.7499999333333339        -0.36000000000000004     -2.2204460492503144E-17
0.6666666000000007        -0.36000000000000004     -2.2204460492503147E-17
0.9166666000000007        0.12000000000000027      -6.661338147750941E-17
0.833333266666667         0.12000000000000027      -6.661338147750941E-17
0.8333332666666673        0.36000000000000004      -8.881784197001253E-17
0.8333332666666672        0.6000000000000002       0
0.5833332666666671        -0.36000000000000004     -2.220446049250314E-17
0.49999993333333387       -0.36000000000000004     -2.220446049250314E-17
0.7499999333333339        0.36000000000000015      -8.881784197001254E-17
0.7499999333333339        0.6000000000000002       0
0.749999933333334         -0.11999999999999972     -4.44089209850063E-17
0.6666666000000006        -0.11999999999999977     -4.4408920985006295E-17
0.7499999333333339        0.12000000000000027      -6.661338147750941E-17
0.6666666000000004        0.12000000000000027      -6.661338147750941E-17
0.4166666000000003        -0.36000000000000004     -2.2204460492503144E-17
0.6666666000000008        0.36000000000000015      -8.881784197001254E-17
0.6666666000000007        0.6000000000000002       0
0.5833332666666668        0.36000000000000004      -8.881784197001253E-17
0.5833332666666671        0.6000000000000002       0
0.5833332666666671        0.12000000000000027      -6.661338147750941E-17
0.5833332666666671        -0.11999999999999977     -4.4408920985006295E-17
0.49999993333333387       -0.11999999999999977     -4.4408920985006295E-17
0.33333326666666724       -0.36000000000000004     -2.2204460492503144E-17
0.24999993333333417       -0.36000000000000004     -2.2204460492503144E-17
0.4166666000000003        -0.11999999999999972     -4.44089209850063E-17
0.49999993333333387       0.36000000000000015      -8.881784197001254E-17
0.4999999333333338        0.6000000000000002       0
0.49999993333333387       0.12000000000000027      -6.661338147750941E-17
0.16666660000000041       -0.36000000000000004     -2.2204460492503147E-17
0.33333326666666724       -0.11999999999999972     -4.44089209850063E-17
0.24999993333333417       -0.11999999999999984     -4.440892098500629E-17
0.16666660000000064       -0.11999999999999977     -4.4408920985006295E-17
0.4166666000000003        0.12000000000000027      -6.661338147750941E-17
0.33333326666666724       0.12000000000000027      -6.661338147750941E-17
0.4166666000000003        0.36000000000000015      -8.881784197001254E-17
0.4166666000000003        0.6000000000000002       0
0.24999993333333417       0.12000000000000016      -6.661338147750941E-17
0.16666660000000041       0.12000000000000027      -6.661338147750941E-17
0.24999993333333417       0.3600000000000004       -8.881784197001255E-17
0.333333266666667         0.36000000000000015      -8.881784197001254E-17