% Model:              FOC_SAT_meshAnsys_001.mph
% Version:            COMSOL 6.0.0.405
% Date:               Nov 14 2023, 15:33
% Dimension:          3
% Nodes:              4846
% Elements:           9288
% Expressions:        1
% Description:        Material settings
% Length unit:        m
% Coordinates
-0.9270373582839966       0.2587415277957916       1.3358827829360962
-0.9300766587257385       0.23921532928943634      1.3341280221939087
-0.913925051689148        0.2499830722808838       1.3434531688690186
-0.9139123558998108       0.23249153792858124      1.3434605598449707
-0.9139059782028198       0.27155664563179016      1.3434642553329468
-0.8977352976799011       0.23921532928943634      1.3528003692626953
-0.900787353515625        0.2587415277957916       1.3510382175445557
-0.9401496648788452       0.23250000178813934      1.3283123970031738
-0.9442105293273926       0.25                     1.3259679079055786
-0.9290550947189331       0.21968911588191986      1.334717869758606
-0.9401496648788452       0.26750001311302185      1.3283123970031738
-0.9290550947189331       0.28031089901924133      1.334717869758606
-0.9138996601104736       0.2150000035762787       1.3434678316116333
-0.8987442255020142       0.21968911588191986      1.3522179126739502
-0.9138996601104736       0.2849999964237213       1.3434678316116333
-0.8987442255020142       0.28031089901924133      1.3522179126739502
-0.887649655342102        0.23250000178813934      1.3586232662200928
-0.8835887312889099       0.25                     1.3609678745269775
-0.887649655342102        0.26750001311302185      1.3586232662200928
-0.9350438714027405       0.25                     1.3100907802581787
-0.9309829473495483       0.23250000178813934      1.312435269355774
-0.9309829473495483       0.26750001311302185      1.312435269355774
-0.919888436794281        0.21968911588191986      1.318840742111206
-0.9047330021858215       0.2150000035762787       1.3275907039642334
-0.919888436794281        0.28031089901924133      1.318840742111206
-0.9047330021858215       0.2849999964237213       1.3275907039642334
-0.8895775079727173       0.21968911588191986      1.3363407850265503
-0.87848299741745         0.23250000178813934      1.3427461385726929
-0.8895775079727173       0.28031089901924133      1.3363407850265503
-0.8744220733642578       0.25                     1.3450907468795776
-0.87848299741745         0.26750001311302185      1.3427461385726929
-0.9218162894248962       0.23250000178813934      1.296558141708374
-0.9258772134780884       0.25                     1.2942136526107788
-0.9107217788696289       0.21968911588191986      1.3029636144638062
-0.9218162894248962       0.26750001311302185      1.296558141708374
-0.9107217788696289       0.28031089901924133      1.3029636144638062
-0.8955662846565247       0.2150000035762787       1.3117135763168335
-0.8804108500480652       0.21968911588191986      1.3204636573791504
-0.8955662846565247       0.2849999964237213       1.3117135763168335
-0.8804108500480652       0.28031089901924133      1.3204636573791504
-0.8693163394927979       0.23250000178813934      1.326869010925293
-0.8652554154396057       0.25                     1.3292136192321777
-0.8693163394927979       0.26750001311302185      1.326869010925293
-0.9167105555534363       0.25                     1.278336524963379
-0.9126496315002441       0.26750001311302185      1.2806810140609741
-0.9126496315002441       0.23250000178813934      1.2806810140609741
-0.901555061340332        0.21968911588191986      1.2870864868164062
-0.8863996267318726       0.2150000035762787       1.2958364486694336
-0.901555061340332        0.28031089901924133      1.2870864868164062
-0.8863996267318726       0.2849999964237213       1.2958364486694336
-0.8712441921234131       0.21968911588191986      1.3045865297317505
-0.860149621963501        0.23250000178813934      1.310991883277893
-0.8712441921234131       0.28031089901924133      1.3045865297317505
-0.8560887575149536       0.25                     1.3133364915847778
-0.860149621963501        0.26750001311302185      1.310991883277893
-0.903482973575592        0.26750001311302185      1.2648038864135742
-0.8923884034156799       0.28031089901924133      1.2712093591690063
-0.9075438380241394       0.25                     1.262459397315979
-0.903482973575592        0.23250000178813934      1.2648038864135742
-0.8923884034156799       0.21968911588191986      1.2712093591690063
-0.8772329688072205       0.2150000035762787       1.2799593210220337
-0.862077534198761        0.21968911588191986      1.2887094020843506
-0.8772329688072205       0.2849999964237213       1.2799593210220337
-0.862077534198761        0.28031089901924133      1.2887094020843506
-0.8509829640388489       0.23250000178813934      1.2951147556304932
-0.8469220995903015       0.25                     1.297459363937378
-0.8509829640388489       0.26750001311302185      1.2951147556304932
-0.8832217454910278       0.28031089901924133      1.2553322315216064
-0.8680663108825684       0.2849999964237213       1.2640821933746338
-0.8983771800994873       0.25                     1.246582269668579
-0.8943163156509399       0.23250000178813934      1.2489267587661743
-0.8943163156509399       0.26750001311302185      1.2489267587661743
-0.8529108762741089       0.21968911588191986      1.2728321552276611
-0.8418163061141968       0.23250000178813934      1.2792376279830933
-0.8832217454910278       0.21968911588191986      1.2553322315216064
-0.8680663108825684       0.2150000035762787       1.2640821933746338
-0.8529108762741089       0.28031089901924133      1.2728321552276611
-0.8377554416656494       0.25                     1.281582236289978
-0.8418163061141968       0.26750001311302185      1.2792376279830933
-0.8588996529579163       0.2849999964237213       1.2482050657272339
-0.8437442183494568       0.28031089901924133      1.2569550275802612
-0.8740550875663757       0.28031089901924133      1.2394551038742065
-0.8851496577262878       0.23250000178813934      1.2330496311187744
-0.8892105221748352       0.25                     1.2307050228118896
-0.8740550875663757       0.21968911588191986      1.2394551038742065
-0.8326496481895447       0.23250000178813934      1.2633605003356934
-0.8285887837409973       0.25                     1.2657051086425781
-0.8437442183494568       0.21968911588191986      1.2569550275802612
-0.8851496577262878       0.26750001311302185      1.2330496311187744
-0.8588996529579163       0.2150000035762787       1.2482050657272339
-0.8326496481895447       0.26750001311302185      1.2633605003356934
-0.8589059710502625       0.27155664563179016      1.2482013702392578
-0.8750766515731812       0.23921532928943634      1.2388652563095093
-0.8427353501319885       0.23921532928943634      1.257537603378296
-0.8720373511314392       0.2587415277957916       1.2406200170516968
-0.8589123487472534       0.23249153792858124      1.2481977939605713
-0.8457873463630676       0.2587415277957916       1.2557754516601562
-0.8589250445365906       0.2499830722808838       1.2481904029846191
-0.9333333969116211       -0.5                     0.10000000149011612
-0.9333333969116211       -0.5707106590270996      0.17071068286895752
-0.9333333969116211       -0.4469670057296753      0.15303300321102142
-0.9333333969116211       -0.5176776647567749      0.22374369204044342
-0.9333333969116211       -0.429289311170578       0.02928932197391987
-0.9333333969116211       -0.3762563169002533      0.08232232928276062
-0.9333333969116211       -0.4646446704864502      0.2767767012119293
-0.9333333969116211       -0.3232232928276062      0.13535533845424652
-0.9333333969116211       -0.3939339816570282      0.20606601238250732
-0.8833333849906921       -0.5176776647567749      0.22374369204044342
-0.8833333849906921       -0.5707106590270996      0.17071068286895752
-0.8333333730697632       -0.5707106590270996      0.17071068286895752
-0.8333333730697632       -0.5176776647567749      0.22374369204044342
-0.8833333849906921       -0.4646446704864502      0.2767767012119293
-0.8333333730697632       -0.4646446704864502      0.2767767012119293
-0.8833333849906921       -0.5                     0.10000000149011612
-0.8833333849906921       -0.429289311170578       0.02928932197391987
-0.8333333730697632       -0.429289311170578       0.02928932197391987
-0.8333333730697632       -0.5                     0.10000000149011612
-0.8833333849906921       -0.3939339816570282      0.20606601238250732
-0.8833333849906921       -0.3232232928276062      0.13535533845424652
-0.8333333730697632       -0.3232232928276062      0.13535533845424652
-0.8333333730697632       -0.3939339816570282      0.20606601238250732
-0.8833333849906921       -0.3762563169002533      0.08232232928276062
-0.8333333730697632       -0.3762563169002533      0.08232232928276062
-0.9333333969116211       -0.3939339816570282      0.8939340114593506
-0.9333333969116211       -0.3232232928276062      0.9646446704864502
-0.9333333969116211       -0.4469670057296753      0.9469670057296753
-0.9333333969116211       -0.3762563169002533      1.017677664756775
-0.9333333969116211       -0.4646446704864502      0.8232232928276062
-0.9333333969116211       -0.429289311170578       1.0707106590270996
-0.9333333969116211       -0.5                     1
-0.9333333969116211       -0.5176776647567749      0.8762562870979309
-0.9333333969116211       -0.5707106590270996      0.9292893409729004
-0.8833333849906921       -0.4646446704864502      0.8232232928276062
-0.8833333849906921       -0.5176776647567749      0.8762562870979309
-0.8333333730697632       -0.5176776647567749      0.8762562870979309
-0.8333333730697632       -0.4646446704864502      0.8232232928276062
-0.8333333730697632       -0.5707106590270996      0.9292893409729004
-0.8833333849906921       -0.5707106590270996      0.9292893409729004
-0.8833333849906921       -0.429289311170578       1.0707106590270996
-0.8833333849906921       -0.5                     1
-0.8333333730697632       -0.5                     1
-0.8333333730697632       -0.429289311170578       1.0707106590270996
-0.8333333730697632       -0.3939339816570282      0.8939340114593506
-0.8333333730697632       -0.3232232928276062      0.9646446704864502
-0.8833333849906921       -0.3939339816570282      0.8939340114593506
-0.8833333849906921       -0.3232232928276062      0.9646446704864502
-0.8833333849906921       -0.3762563169002533      1.017677664756775
-0.8333333730697632       -0.3762563169002533      1.017677664756775
-0.9333333969116211       0.3939339816570282       0.20606601238250732
-0.9333333969116211       0.3232232928276062       0.13535533845424652
-0.9333333969116211       0.4469670057296753       0.15303300321102142
-0.9333333969116211       0.3762563169002533       0.08232232928276062
-0.9333333969116211       0.4646446704864502       0.2767767012119293
-0.9333333969116211       0.5176776647567749       0.22374369204044342
-0.9333333969116211       0.429289311170578        0.02928932197391987
-0.9333333969116211       0.5                      0.10000000149011612
-0.9333333969116211       0.5707106590270996       0.17071068286895752
-0.8833333849906921       0.3762563169002533       0.08232232928276062
-0.8833333849906921       0.3232232928276062       0.13535533845424652
-0.8333333730697632       0.3232232928276062       0.13535533845424652
-0.8333333730697632       0.3762563169002533       0.08232232928276062
-0.8833333849906921       0.429289311170578        0.02928932197391987
-0.8333333730697632       0.429289311170578        0.02928932197391987
-0.8833333849906921       0.3939339816570282       0.20606601238250732
-0.8833333849906921       0.4646446704864502       0.2767767012119293
-0.8333333730697632       0.3939339816570282       0.20606601238250732
-0.8333333730697632       0.4646446704864502       0.2767767012119293
-0.8833333849906921       0.5                      0.10000000149011612
-0.8833333849906921       0.5707106590270996       0.17071068286895752
-0.8333333730697632       0.5                      0.10000000149011612
-0.8333333730697632       0.5707106590270996       0.17071068286895752
-0.8833333849906921       0.5176776647567749       0.22374369204044342
-0.8333333730697632       0.5176776647567749       0.22374369204044342
-0.9333333969116211       0.5                      1
-0.9333333969116211       0.4469670057296753       0.9469670057296753
-0.9333333969116211       0.429289311170578        1.0707106590270996
-0.9333333969116211       0.3762563169002533       1.017677664756775
-0.9333333969116211       0.3232232928276062       0.9646446704864502
-0.9333333969116211       0.3939339816570282       0.8939340114593506
-0.9333333969116211       0.5707106590270996       0.9292893409729004
-0.9333333969116211       0.5176776647567749       0.8762562870979309
-0.9333333969116211       0.4646446704864502       0.8232232928276062
-0.8833333849906921       0.3762563169002533       1.017677664756775
-0.8833333849906921       0.429289311170578        1.0707106590270996
-0.8833333849906921       0.3232232928276062       0.9646446704864502
-0.8333333730697632       0.429289311170578        1.0707106590270996
-0.8333333730697632       0.3762563169002533       1.017677664756775
-0.8333333730697632       0.3232232928276062       0.9646446704864502
-0.8833333849906921       0.3939339816570282       0.8939340114593506
-0.8833333849906921       0.4646446704864502       0.8232232928276062
-0.8333333730697632       0.3939339816570282       0.8939340114593506
-0.8333333730697632       0.4646446704864502       0.8232232928276062
-0.8833333849906921       0.5                      1
-0.8833333849906921       0.5707106590270996       0.9292893409729004
-0.8333333730697632       0.5                      1
-0.8333333730697632       0.5707106590270996       0.9292893409729004
-0.8833333849906921       0.5176776647567749       0.8762562870979309
-0.8333333730697632       0.5176776647567749       0.8762562870979309
-0.8903455138206482       0.30000001192092896      1.202670931816101
-0.8903455138206482       0.25                     1.202670931816101
-0.9022009372711182       0.30000001192092896      1.2232050895690918
-0.9022009372711182       0.25                     1.2232050895690918
-0.9022009372711182       0.20000000298023224      1.2232050895690918
-0.8903455138206482       0.20000000298023224      1.202670931816101
-0.8784900903701782       0.30000001192092896      1.1821367740631104
-0.8784900903701782       0.25                     1.1821367740631104
-0.8784900903701782       0.20000000298023224      1.1821367740631104
-0.8666346669197083       0.30000001192092896      1.16160249710083
-0.8666346669197083       0.25                     1.16160249710083
-0.8666346669197083       0.20000000298023224      1.16160249710083
-0.8547792434692383       0.25                     1.1410683393478394
-0.8547792434692383       0.30000001192092896      1.1410683393478394
-0.8547792434692383       0.20000000298023224      1.1410683393478394
-0.8429238200187683       0.30000001192092896      1.1205341815948486
-0.8429238200187683       0.25                     1.1205341815948486
-0.8429238200187683       0.20000000298023224      1.1205341815948486
-0.8310684561729431       0.20000000298023224      1.100000023841858
-0.8310684561729431       0.30000001192092896      1.100000023841858
-0.8310684561729431       0.25                     1.100000023841858
-0.8588996529579163       0.30000001192092896      1.2482050657272339
-0.8588996529579163       0.25                     1.2482050657272339
-0.8155983686447144       0.30000001192092896      1.273205041885376
-0.8155983686447144       0.25                     1.273205041885376
-0.8155983686447144       0.20000000298023224      1.273205041885376
-0.8588996529579163       0.20000000298023224      1.2482050657272339
-0.8446385860443115       0.20000000298023224      1.2235041856765747
-0.7989317178726196       0.20000000298023224      1.244337558746338
-0.7822650671005249       0.20000000298023224      1.2154700756072998
-0.8303775787353516       0.20000000298023224      1.198803424835205
-0.8161165118217468       0.20000000298023224      1.174102544784546
-0.7655983567237854       0.20000000298023224      1.1866025924682617
-0.7489317059516907       0.20000000298023224      1.157734990119934
-0.8018555045127869       0.20000000298023224      1.1494016647338867
-0.7875944375991821       0.20000000298023224      1.124700903892517
-0.732265055179596        0.20000000298023224      1.128867506980896
-0.7155983448028564       0.20000000298023224      1.100000023841858
-0.7733333706855774       0.20000000298023224      1.100000023841858
-0.8446385860443115       0.30000001192092896      1.2235041856765747
-0.7989317178726196       0.30000001192092896      1.244337558746338
-0.8303775787353516       0.30000001192092896      1.198803424835205
-0.7822650671005249       0.30000001192092896      1.2154700756072998
-0.8161165118217468       0.30000001192092896      1.174102544784546
-0.7655983567237854       0.30000001192092896      1.1866025924682617
-0.8018555045127869       0.30000001192092896      1.1494016647338867
-0.7489317059516907       0.30000001192092896      1.157734990119934
-0.7875944375991821       0.30000001192092896      1.124700903892517
-0.732265055179596        0.30000001192092896      1.128867506980896
-0.7155983448028564       0.30000001192092896      1.100000023841858
-0.7733333706855774       0.30000001192092896      1.100000023841858
-0.7989317178726196       0.25                     1.244337558746338
-0.7822650671005249       0.25                     1.2154700756072998
-0.7655983567237854       0.25                     1.1866025924682617
-0.7489317059516907       0.25                     1.157734990119934
-0.732265055179596        0.25                     1.128867506980896
-0.7155983448028564       0.25                     1.100000023841858
-0.8833333849906921       -0.15000000596046448     0.550000011920929
-0.8833333849906921       -0.07500000298023224     0.550000011920929
-0.8833333849906921       -0.15000000596046448     0.45500001311302185
-0.8833333849906921       -0.07500000298023224     0.45500001311302185
-0.8833333849906921       -0.07500000298023224     0.6449999809265137
-0.8833333849906921       -0.15000000596046448     0.6449999809265137
-0.8833333849906921       2.220446049250313E-16    0.6449999809265137
-0.8833333849906921       -1.1102230246251565E-15  0.45500001311302185
-0.8833333849906921       0.07500000298023224      0.45500001311302185
-0.8833333849906921       0.07500000298023224      0.550000011920929
-0.8833333849906921       0.15000000596046448      0.45500001311302185
-0.8833333849906921       0.15000000596046448      0.550000011920929
-0.8833333849906921       0.07500000298023224      0.6449999809265137
-0.8833333849906921       0.15000000596046448      0.6449999809265137
-0.8833333849906921       -4.440892098500626E-16   0.550000011920929
-0.85833340883255         -0.15000000596046448     0.6449999809265137
-0.85833340883255         -0.15000000596046448     0.550000011920929
-0.8333333730697632       -0.15000000596046448     0.6449999809265137
-0.8333333730697632       -0.15000000596046448     0.550000011920929
-0.8333333730697632       -0.15000000596046448     0.45500001311302185
-0.85833340883255         -0.15000000596046448     0.45500001311302185
-0.8333333730697632       -0.07500000298023224     0.45500001311302185
-0.85833340883255         -0.07500000298023224     0.45500001311302185
-0.8333333730697632       -1.1102230246251565E-15  0.45500001311302185
-0.8333333730697632       0.07500000298023224      0.45500001311302185
-0.85833340883255         0.07500000298023224      0.45500001311302185
-0.8333333730697632       0.15000000596046448      0.45500001311302185
-0.85833340883255         0.15000000596046448      0.45500001311302185
-0.85833340883255         -1.1102230246251565E-15  0.45500001311302185
-0.8333333730697632       -0.07500000298023224     0.6449999809265137
-0.85833340883255         -0.07500000298023224     0.6449999809265137
-0.8333333730697632       2.220446049250313E-16    0.6449999809265137
-0.8333333730697632       0.07500000298023224      0.6449999809265137
-0.85833340883255         0.07500000298023224      0.6449999809265137
-0.85833340883255         0.15000000596046448      0.6449999809265137
-0.8333333730697632       0.15000000596046448      0.6449999809265137
-0.85833340883255         2.220446049250313E-16    0.6449999809265137
-0.8333333730697632       0.15000000596046448      0.550000011920929
-0.85833340883255         0.15000000596046448      0.550000011920929
-0.8333333730697632       -0.6000000238418579      0.13750000298023224
-0.8333333730697632       -0.6000000238418579      0.2750000059604645
-0.8333333730697632       -0.44999998807907104     0.13750000298023224
-0.8333333730697632       -0.44999998807907104     0
-0.8333333730697632       -0.30000001192092896     0
-0.8333333730697632       -0.6000000238418579      0
-0.8333333730697632       -0.44999998807907104     0.2750000059604645
-0.8333333730697632       -0.30000001192092896     0.13750000298023224
-0.8333333730697632       -0.44999998807907104     1.100000023841858
-0.8333333730697632       -0.44999998807907104     0.9624999761581421
-0.8333333730697632       -0.6000000238418579      1.100000023841858
-0.8333333730697632       -0.6000000238418579      0.9624999761581421
-0.8333333730697632       -0.30000001192092896     1.100000023841858
-0.8333333730697632       -0.6000000238418579      0.824999988079071
-0.8333333730697632       -0.30000001192092896     0.9624999761581421
-0.8333333730697632       -0.44999998807907104     0.824999988079071
-0.8333333730697632       -0.15000000596046448     0
-0.8333333730697632       -0.15000000596046448     0.13750000298023224
-0.8333333730697632       0                        0
-0.8333333730697632       0                        0.13750000298023224
-0.8333333730697632       0.44999998807907104      -1.1102230246251565E-16
-0.8333333730697632       0.44999998807907104      0.13750000298023224
-0.8333333730697632       0.6000000238418579       0
-0.8333333730697632       0.6000000238418579       0.13750000298023224
-0.8333333730697632       0.30000001192092896      -1.1102230246251565E-16
-0.8333333730697632       0.30000001192092896      0.13750000298023224
-0.8333333730697632       0.15000000596046448      -1.1102230246251565E-16
-0.8333333730697632       0.15000000596046448      0.13750000298023224
-0.8333333730697632       0.6000000238418579       0.2750000059604645
-0.8333333730697632       0.44999998807907104      0.2750000059604645
-0.8333333730697632       0.44999998807907104      1.100000023841858
-0.8333333730697632       0.44999998807907104      0.9624999761581421
-0.8333333730697632       0.30000001192092896      1.100000023841858
-0.8333333730697632       0.6000000238418579       0.9624999761581421
-0.8333333730697632       0.6000000238418579       1.100000023841858
-0.8333333730697632       0.6000000238418579       0.824999988079071
-0.8333333730697632       0.44999998807907104      0.824999988079071
-0.8333333730697632       0.30000001192092896      0.9624999761581421
-0.8333333730697632       -0.15000000596046448     1.100000023841858
-0.8333333730697632       -0.15000000596046448     0.9624999761581421
-0.8333333730697632       0                        1.100000023841858
-0.8333333730697632       0                        0.9624999761581421
-0.8333333730697632       0.15000000596046448      1.100000023841858
-0.8333333730697632       0.15000000596046448      0.9624999761581421
-0.8333333730697632       -0.6000000238418579      0.4124999940395355
-0.8333333730697632       -0.6000000238418579      0.550000011920929
-0.8333333730697632       -0.44999998807907104     0.4124999940395355
-0.8333333730697632       -0.44999998807907104     0.6875
-0.8333333730697632       -0.6000000238418579      0.6875
-0.8333333730697632       -0.44999998807907104     0.550000011920929
-0.8333333730697632       -0.30000001192092896     0.2750000059604645
-0.8333333730697632       -0.30000001192092896     0.4124999940395355
-0.8333333730697632       -0.15000000596046448     0.2750000059604645
-0.8333333730697632       -0.30000001192092896     0.824999988079071
-0.8333333730697632       -0.15000000596046448     0.824999988079071
-0.8333333730697632       -0.30000001192092896     0.6875
-0.8333333730697632       0                        0.2750000059604645
-0.8333333730697632       0.30000001192092896      0.2750000059604645
-0.8333333730697632       0.15000000596046448      0.2750000059604645
-0.8333333730697632       0.6000000238418579       0.4124999940395355
-0.8333333730697632       0.44999998807907104      0.4124999940395355
-0.8333333730697632       0.6000000238418579       0.550000011920929
-0.8333333730697632       0.6000000238418579       0.6875
-0.8333333730697632       0.44999998807907104      0.6875
-0.8333333730697632       0.30000001192092896      0.4124999940395355
-0.8333333730697632       0.44999998807907104      0.550000011920929
-0.8333333730697632       0.30000001192092896      0.824999988079071
-0.8333333730697632       0                        0.824999988079071
-0.8333333730697632       0.30000001192092896      0.6875
-0.8333333730697632       0.15000000596046448      0.824999988079071
-0.8333333730697632       -0.30000001192092896     0.550000011920929
-0.8333333730697632       -0.15000000596046448     0.4124999940395355
-0.8333333730697632       0                        0.4124999940395355
-0.8333333730697632       -0.15000000596046448     0.6875
-0.8333333730697632       0                        0.6875
-0.8333333730697632       0                        0.550000011920929
-0.8333333730697632       0.15000000596046448      0.4124999940395355
-0.8333333730697632       0.30000001192092896      0.550000011920929
-0.8333333730697632       0.15000000596046448      0.6875
1.6666666269302368        -0.6000000238418579      0.4124999940395355
1.5104166269302368        -0.6000000238418579      0.4124999940395355
1.6666666269302368        -0.6000000238418579      0.2750000059604645
1.5104166269302368        -0.6000000238418579      0.550000011920929
1.6666666269302368        -0.6000000238418579      0.550000011920929
1.5104166269302368        -0.6000000238418579      0.2750000059604645
1.6666666269302368        -0.6000000238418579      0.6875
1.5104166269302368        -0.6000000238418579      0.6875
1.6666666269302368        -0.6000000238418579      0.824999988079071
1.5104166269302368        -0.6000000238418579      0.824999988079071
1.6666666269302368        -0.6000000238418579      0.13750000298023224
1.5104166269302368        -0.6000000238418579      0.13750000298023224
1.6666666269302368        -0.6000000238418579      0
1.5104166269302368        -0.6000000238418579      0
1.6666666269302368        -0.6000000238418579      0.9624999761581421
1.5104166269302368        -0.6000000238418579      0.9624999761581421
1.6666666269302368        -0.6000000238418579      1.100000023841858
1.5104166269302368        -0.6000000238418579      1.100000023841858
1.3541666269302368        -0.6000000238418579      0.4124999940395355
1.3541666269302368        -0.6000000238418579      0.550000011920929
1.3541666269302368        -0.6000000238418579      0.6875
1.3541666269302368        -0.6000000238418579      0.2750000059604645
1.3541666269302368        -0.6000000238418579      0.13750000298023224
1.3541666269302368        -0.6000000238418579      0.824999988079071
1.3541666269302368        -0.6000000238418579      0.9624999761581421
1.3541666269302368        -0.6000000238418579      0
1.3541666269302368        -0.6000000238418579      1.100000023841858
1.1979166269302368        -0.6000000238418579      0.4124999940395355
1.1979166269302368        -0.6000000238418579      0.550000011920929
1.1979166269302368        -0.6000000238418579      0.2750000059604645
1.1979166269302368        -0.6000000238418579      0.6875
1.1979166269302368        -0.6000000238418579      0.824999988079071
1.1979166269302368        -0.6000000238418579      0.13750000298023224
1.1979166269302368        -0.6000000238418579      0
1.1979166269302368        -0.6000000238418579      0.9624999761581421
1.1979166269302368        -0.6000000238418579      1.100000023841858
1.0416666269302368        -0.6000000238418579      0.4124999940395355
1.0416666269302368        -0.6000000238418579      0.550000011920929
1.0416666269302368        -0.6000000238418579      0.6875
1.0416666269302368        -0.6000000238418579      0.2750000059604645
1.0416666269302368        -0.6000000238418579      0.13750000298023224
1.0416666269302368        -0.6000000238418579      0.824999988079071
1.0416666269302368        -0.6000000238418579      0.9624999761581421
1.0416666269302368        -0.6000000238418579      0
1.0416666269302368        -0.6000000238418579      1.100000023841858
0.8854166269302368        -0.6000000238418579      0.4124999940395355
0.8854166269302368        -0.6000000238418579      0.2750000059604645
0.8854166269302368        -0.6000000238418579      0.6875
0.8854166269302368        -0.6000000238418579      0.824999988079071
0.8854166269302368        -0.6000000238418579      0.550000011920929
0.8854166269302368        -0.6000000238418579      0.13750000298023224
0.8854166269302368        -0.6000000238418579      0
0.8854166269302368        -0.6000000238418579      0.9624999761581421
0.8854166269302368        -0.6000000238418579      1.100000023841858
0.7291666269302368        -0.6000000238418579      0.13750000298023224
0.7291666269302368        -0.6000000238418579      0.2750000059604645
0.7291666269302368        -0.6000000238418579      0.4124999940395355
0.7291666269302368        -0.6000000238418579      0.824999988079071