% Model:              Foc3_Ansys_materials_5.mph
% Version:            COMSOL 6.2.0.339
% Date:               Sep 11 2024, 22:07
% Dimension:          3
% Nodes:              2603
% Elements:           4693
% Expressions:        1
% Description:        Material settings
% Length unit:        m
% Coordinates
-0.9333334000000002       -0.4292893218813446      0.02928932188134541
-0.9333334000000002       -0.5707106781186537      0.1707106781186546
-0.9333334000000002       -0.32322330470336286     0.13535533905932723
-0.9333334000000002       -0.464644660940672       0.2767766952966364
-0.8333334000000003       -0.5707106781186538      0.17071067811865454
-0.8333334000000003       -0.464644660940672       0.27677669529663623
-0.8333334000000003       -0.4292893218813446      0.029289321881345327
-0.9333334000000004       -0.46464466094067297     0.8232233047033644
-0.9333334000000004       -0.5707106781186546      0.929289321881346
-0.9333334000000004       -0.32322330470336375     0.9646446609406734
-0.9333334000000004       -0.4292893218813454      1.070710678118655
-0.8333334000000003       -0.464644660940673       0.8232233047033644
-0.8333334000000003       -0.5707106781186546      0.929289321881346
-0.8333334000000003       -0.4292893218813454      1.070710678118655
-0.8333334000000003       -0.32322330470336286     0.13535533905932712
-0.8333334000000003       -0.32322330470336386     0.9646446609406734
-0.9333334000000004       0.4292893218813413       0.0292893218813471
-0.9333334000000004       0.32322330470336086      0.13535533905933014
-0.9333334000000004       0.5707106781186522       0.17071067811865456
-0.9333334000000004       0.4646446609406717       0.2767766952966376
-0.8333334000000003       0.42928932188134133      0.02928932188134704
-0.8333334000000003       0.32322330470336086      0.13535533905933006
-0.8333334000000003       0.46464466094067175      0.2767766952966376
-0.9333334000000002       0.464644660940672        0.8232233047033637
-0.9333334000000002       0.32322330470336286      0.9646446609406728
-0.9333334000000002       0.5707106781186537       0.9292893218813456
-0.9333334000000002       0.4292893218813446       1.0707106781186546
-0.8333334000000003       0.32322330470336286      0.9646446609406729
-0.8333334000000003       0.42928932188134467      1.0707106781186546
-0.8333334000000003       0.4646446609406719       0.8232233047033638
-0.8333334000000003       0.5707106781186522       0.17071067811865456
-0.8333334000000003       0.5707106781186538       0.9292893218813457
-0.8879744161513781       0.20000000000000018      1.198564064605511
-0.9022009134594817       0.20000000000000018      1.2232050807568884
-0.8879744161513781       0.30000000000000027      1.198564064605511
-0.9022009134594817       0.30000000000000027      1.2232050807568884
-0.8595214215351705       0.20000000000000018      1.1492820323027562
-0.8737479188432744       0.20000000000000018      1.1739230484541336
-0.8595214215351705       0.30000000000000027      1.1492820323027562
-0.8737479188432744       0.30000000000000027      1.1739230484541336
-0.8452949242270669       0.20000000000000018      1.1246410161513787
-0.8452949242270669       0.30000000000000027      1.1246410161513787
-0.8310684269189627       0.20000000000000015      1.1000000000000005
-0.8310684269189633       0.30000000000000027      1.1000000000000005
-0.8617302036879101       0.20000000000000018      1.2093603288287496
-0.8696497754609775       0.20000000000000018      1.2419984890427533
-0.8247733083539243       0.20000000000000018      1.121064737539932
-0.8221099648858865       0.20000000000000018      1.1365504173407437
-0.8105161822356325       0.20000000000000015      1.1000000000000005
-0.7873176318128551       0.20000000000000015      1.1000000000000005
-0.8192659496434388       0.20000000000000018      1.1793536268704852
-0.8155983730810379       0.20000000000000018      1.273205080756889
-0.7573042328300671       0.20000000000000015      1.1000000000000005
-0.7155983730810379       0.20000000000000015      1.1000000000000005
-0.8155353174104509       0.30000000000000027      1.163276587807824
-0.8696497754609775       0.30000000000000027      1.2419984890427533
-0.830265258421305        0.30000000000000027      1.1252441714443626
-0.8105161822356329       0.30000000000000027      1.1000000000000005
-0.787317631812856        0.30000000000000027      1.1000000000000005
-0.7155983730810376       0.30000000000000027      1.1000000000000005
-0.8155983730810379       0.30000000000000027      1.273205080756889
-0.8833334000000005       -1.0547118733938991E-15  0.4550000000000007
-0.8833334000000005       -1.0547118733938991E-15  0.6450000000000014
-0.8833334000000005       0.14999999999999905      0.4550000000000007
-0.8833334000000005       0.14999999999999905      0.6450000000000014
-0.8833334000000005       -0.15000000000000047     0.4550000000000007
-0.8833334000000005       -0.15000000000000047     0.6450000000000014
-0.8333334000000003       -0.15000000000000047     0.4550000000000007
-0.8333334000000003       -0.15000000000000047     0.6450000000000014
-0.8333334000000003       -1.0547118733938991E-15  0.4550000000000007
-0.8333334000000003       0.14999999999999905      0.4550000000000007
-0.8333334000000003       -1.0547118733938991E-15  0.6450000000000014
-0.8333334000000003       0.14999999999999905      0.6450000000000014
-0.8833334000000005       -0.03250000000000062     0.7675000000000015
-0.8833334000000005       -0.03250000000000062     0.832500000000001
-0.8833334000000005       0.032499999999999016     0.7675000000000015
-0.8833334000000005       0.032499999999999016     0.832500000000001
-0.8333334000000003       -0.03250000000000062     0.7675000000000015
-0.8333334000000003       -0.03250000000000062     0.832500000000001
-0.8333334000000003       0.032499999999999016     0.7675000000000015
-0.8333334000000003       0.032499999999999016     0.832500000000001
-0.8833334000000004       -0.03250000000000057     0.9175000000000044
-0.8833334000000004       -0.03250000000000057     0.9825000000000041
-0.8833334000000004       0.03249999999999907      0.9175000000000044
-0.8833334000000004       0.03249999999999907      0.9825000000000041
-0.8333334000000003       -0.03250000000000062     0.9175000000000044
-0.8333334000000003       -0.03250000000000062     0.9825000000000041
-0.8333334000000003       0.032499999999999016     0.9175000000000044
-0.8333334000000003       0.032499999999999016     0.9825000000000041
1.5609469539152943        -0.6000000000000002      1.1000000000000008
1.5252064886138184        -0.6000000000000002      1.0202540583388138
1.6666666000000008        -0.6000000000000002      1.1000000000000008
1.5972372635007723        -0.6000000000000002      0.9802089342840954
1.552990301246828         -0.6000000000000002      0.9196200366371736
1.4866666000000026        -0.6000000000000002      0.9346410161513751
1.5066666000000029        -0.6000000000000002      0.8999999999999975
1.528276038433367         -0.6000000000000002      0.895028863532761
1.474177881654064         -0.6000000000000002      1.0267701004074203
1.4497919100694703        -0.6000000000000002      1.1000000000000008
1.4466666000000026        -0.6000000000000002      0.9346410161513751
1.4866666000000026        -0.6000000000000002      0.23464101615137664
1.5066666000000029        -0.6000000000000002      0.19999999999999907
1.513018504180561         -0.6000000000000002      0.2877358090394615
1.5522325090879654        -0.6000000000000002      0.19746429711517227
1.4866666000000026        -0.6000000000000002      0.1653589838486215
1.5419036377974924        -0.6000000000000002      0
1.4466666000000026        -0.6000000000000002      0.23464101615137664
1.4443972063145762        -0.6000000000000002      0.2950045675143343
1.366039139331937         -0.6000000000000002      1.1000000000000008
1.4866666000000026        -0.6000000000000002      0.8653589838486198
1.4815382641954784        -0.6000000000000002      0.8301005213262205
1.4326730031865642        -0.6000000000000002      0.8172905681714328
1.4466666000000026        -0.6000000000000002      0.8653589838486198
1.5185436480115326        -0.6000000000000002      0.8115653000125123
1.5548595796230509        -0.6000000000000002      0.7868550050787358
1.6099539632812667        -0.6000000000000002      0.7646932084726166
1.6666666000000008        -0.6000000000000002      0.7818679822020403
1.4266666000000028        -0.6000000000000002      0.8999999999999975
1.4075184436006463        -0.6000000000000002      0.8503366798983002
1.3495855179361536        -0.6000000000000002      0.9418398973588099
1.5062119638889016        -0.6000000000000002      0.6639516524149608
1.5584985789443604        -0.6000000000000002      0.5749046351419821
1.4420146506591356        -0.6000000000000002      0.3939898799957248
1.525695741411428         -0.6000000000000002      0.37065585415746016
1.4266666000000028        -0.6000000000000002      0.19999999999999907
1.420595083869176         -0.6000000000000002      0.2608428181652762
1.6666666000000008        -0.6000000000000002      0.3181320177979588
1.5124258459104813        -0.6000000000000002      0.4932752938492286
1.6666666000000008        -0.6000000000000002      0
1.4466666000000026        -0.6000000000000002      0.16535898384862152
1.3932870043226893        -0.6000000000000002      0
1.355569033789838         -0.6000000000000002      0.16814108960146462
1.2989768596653621        -0.6000000000000002      1.1000000000000008
1.290800276824868         -0.6000000000000002      0.9480156461182954
1.3652651017084674        -0.6000000000000002      0.8307636595232177
1.4780811325974377        -0.6000000000000002      0.7613530089495026
1.411462571156409         -0.6000000000000002      0.7308080901017139
1.29539184744732          -0.6000000000000002      0.7901084356386949
1.4365906504230719        -0.6000000000000002      0.5449681565592532
1.37418851893012          -0.6000000000000002      0.2990123151208225
1.303351730121057         -0.6000000000000002      0.6386609063759064
1.2292930802177995        -0.6000000000000002      0.8139790388834884
1.2023644151506665        -0.6000000000000002      0.9247861003731623
1.1928053366839844        -0.6000000000000002      0.6921582455207677
1.2285169801118325        -0.6000000000000002      0.175898046288259
1.2162560701778768        -0.6000000000000002      0
1.2072940606680638        -0.6000000000000002      1.1000000000000008
1.2954187822158296        -0.6000000000000002      0.44878755936651094
1.1363014316808324        -0.6000000000000002      0.4902834846721755
1.1031306394419809        -0.6000000000000002      0.8051686282561953
1.0693203746165372        -0.6000000000000002      0.2492212653440745
1.0053782504384172        -0.6000000000000002      0
0.7940971150601284        -0.6000000000000002      0
0.8954056569728196        -0.6000000000000002      0.2685714626296156
0.9877830930441723        -0.6000000000000002      0.5745327255823031
1.0211611654619146        -0.6000000000000002      1.1000000000000008
0.17864684074241527       -0.6000000000000002      0.15116251720976323
0.15031972640344238       -0.6000000000000002      0.22886918807794696
0.13401046831897917       -0.6000000000000002      0.10507806403247541
0.1066666000000001        -0.6000000000000002      0.20000000000000004
0.1611178395339907        -0.6000000000000002      0.055957776005076953
0.20819148298553541       -0.6000000000000002      0.07215189967845552
0.14473162966554706       -0.6000000000000002      0
0.23413299591484624       -0.6000000000000002      0
0.08666660000000004       -0.6000000000000002      0.1653589838486225
0.06836278680489909       -0.6000000000000002      0
0.6162046648365792        -0.6000000000000002      0
0.728940387016407         -0.6000000000000002      0.27885471534789974
0.8414532164453769        -0.6000000000000002      0.6393378835470553
0.1183359021600821        -0.6000000000000002      0.9473923247626225
0.1066666000000001        -0.6000000000000002      0.8999999999999975
0.167321317942489         -0.6000000000000002      0.9684681065549412
0.15940387074443038       -0.6000000000000002      0.8533965769620709
0.29236997277237764       -0.6000000000000002      0.9811938728346791
0.43706709872556626       -0.6000000000000002      0.8479944297842555
0.2944086699818429        -0.6000000000000002      1.1000000000000008
0.5347382298441532        -0.6000000000000002      1.1000000000000005
0.3403141633786724        -0.6000000000000002      0
0.25063249860952885       -0.6000000000000002      0.10046024240713874
0.46642454398003547       -0.6000000000000002      0
0.5513948598682541        -0.6000000000000002      0.29025658642518604
0.4306724902680175        -0.6000000000000002      0.2730487597559616
0.23887654353231982       -0.6000000000000002      0.2046621331138526
0.19026059588907146       -0.6000000000000002      0.27050121748630374
0.08666660000000005       -0.6000000000000002      0.2346410161513776
0.11302518438947502       -0.6000000000000002      0.3116044321674989
0.19984259692810358       -0.6000000000000002      0.3898247200659082
0.3022262004497168        -0.6000000000000002      0.28566384363311736
0.3798281528121617        -0.6000000000000002      0.4614515685833387
0.03270531629515323       -0.6000000000000002      0.12015329911827027
0.04666659999999997       -0.6000000000000002      0.16535898384862252
0.5891949507587378        -0.6000000000000002      0.6689464270908464
0.7693966382978246        -0.6000000000000002      1.1000000000000008
0.23983109428992894       -0.6000000000000002      0.5307680812894915
0.23921758631123016       -0.6000000000000002      0.726036574235847
0.35891949859812583       -0.6000000000000002      0.6723594216049699
0.16913846109710368       -0.6000000000000002      0.5558531772601326
0.14550390447375494       -0.6000000000000002      0.6616710566494245
0.1310437806808374        -0.6000000000000002      0.4771478262807028
0.04666660000000006       -0.6000000000000002      0.23464101615137764
0.04351893548702444       -0.6000000000000002      0.3116906994146199
0.026666600000000026      -0.6000000000000002      0.20000000000000004
0.018901098757162647      -0.6000000000000002      0.29169742103450463
0.09750688267701287       -0.6000000000000002      0.405185602400635
-0.3782730114946302       -0.6000000000000002      0.18700056407541304
-0.3395983760350755       -0.6000000000000002      0.1997823925252136
-0.39333340000000017      -0.6000000000000002      0.20000000000000112
-0.35776185141193195      -0.6000000000000002      0.268261078464582
-0.026861659627629757     -0.6000000000000002      0.1672140107565549
-0.013203384381662131     -0.6000000000000002      0
-0.21478101536985422      -0.6000000000000002      0
-0.10697577295079959      -0.6000000000000002      0
-0.24527926311733395      -0.6000000000000002      0.11937878332034993
-0.13919595817496422      -0.6000000000000002      0.16552670476218392
0.09250441114900915       -0.6000000000000002      1.1000000000000008
0.08666660000000005       -0.6000000000000002      0.9346410161513751
0.0864559219963005        -0.6000000000000002      0.9989336789578805
0.04666659999999997       -0.6000000000000002      0.8653589838486198
0.025617341531376462      -0.6000000000000002      0.7744563191986205
0.08666660000000004       -0.6000000000000002      0.8653589838486198
0.10545500391358273       -0.6000000000000002      0.7784082362047751
-0.36275516834101973      -0.6000000000000002      0.07833473171395838
-0.2693175689423954       -0.6000000000000002      0.24170407346167844
-0.4133334000000002       -0.6000000000000002      0.16535898384862355
-0.3998795571459509       -0.6000000000000002      0.1465246319066315
-0.33871910066734423      -0.6000000000000002      0
-0.4133334000000002       -0.6000000000000002      0.2346410161513787
-0.3873098182200945       -0.6000000000000002      0.31855589352706765
0.05852195563030882       -0.6000000000000002      0.5747908629529324
-0.18193582309409306      -0.6000000000000002      0.36883295642063835
-0.03936555542237116      -0.6000000000000002      0.36598747177004975
0.04199995742106613       -0.6000000000000002      0.4314776850883825
-0.0404050490100755       -0.6000000000000002      0.7204800758697893
-0.05443362596385865      -0.6000000000000002      0.5782319113497063
-0.31392852032242424      -0.6000000000000002      0.34311528791605306
-0.3533577235808727       -0.6000000000000002      0.40453791575549203
-0.2770901365166167       -0.6000000000000002      0.4500105952177811
-0.3254396731204396       -0.6000000000000002      0.46610275536922646
0.04666660000000006       -0.6000000000000002      0.9346410161513751
0.014759110127100863      -0.6000000000000002      0.9777645070517388
-0.07711820938169556      -0.6000000000000002      1.1000000000000008
0.026666600000000026      -0.6000000000000002      0.8999999999999975
-0.012996344593671416     -0.6000000000000002      0.8976800094809476
-0.11477206850997668      -0.6000000000000002      0.8747332515681958
-0.17341992823223373      -0.6000000000000002      0.6323662610122699
-0.4533334000000003       -0.6000000000000002      0.16535898384862358
-0.45906929572780786      -0.6000000000000002      0.13350974834990076
-0.44664291731213973      -0.6000000000000002      0.07242039421238156
-0.4812042771070839       -0.6000000000000002      0
-0.4423906106457786       -0.6000000000000002      0.3866145340953509
-0.4533334000000002       -0.6000000000000002      0.23464101615137872
-0.3838522379301147       -0.6000000000000002      0.4963820416325193
-0.4733334000000003       -0.6000000000000002      0.20000000000000112
-0.47341007781013267      -0.6000000000000002      0.44963966641479675
-0.3075185775044406       -0.6000000000000002      0.7010258947853878
-0.2769835286433257       -0.6000000000000002      0.567495000235694
-0.2487996973296364       -0.6000000000000002      0.7459735998633228
-0.3429332751161524       -0.6000000000000002      0.5492833151573858
-0.3743603358569245       -0.6000000000000002      0.692393088749335
-0.41141712382261575      -0.6000000000000002      0.7931927468711015
-0.3447285234058736       -0.6000000000000002      0.8160566326036549
-0.25034822575640914      -0.6000000000000002      0.9090072831463851
-0.21962056947071718      -0.6000000000000002      1.1000000000000005
-0.5466136274490053       -0.6000000000000002      0.24623350018587234
-0.4632949785538145       -0.6000000000000002      0.6716709067003754
-0.4628531684275331       -0.6000000000000002      0.7926088623730776
-0.4533334000000003       -0.6000000000000002      0.8653589838486198
-0.4733334000000003       -0.6000000000000002      0.8999999999999975
-0.445052147113459        -0.6000000000000002      0.8437072604259592
-0.4682257329143091       -0.6000000000000002      0.8501904088351373
-0.4958446958747953       -0.6000000000000002      0.8575043292795336
-0.5110236341292209       -0.6000000000000002      0.7742445921446995
-0.4133334000000002       -0.6000000000000002      0.8653589838486198
-0.39333340000000017      -0.6000000000000002      0.8999999999999975
-0.4927409382214024       -0.6000000000000002      0.9088468738434692
-0.48134391566722246      -0.6000000000000002      0.9116458019002254
-0.467567730234309        -0.6000000000000002      0.9449366389903913
-0.4533334000000002       -0.6000000000000002      0.9346410161513751
-0.4133334000000002       -0.6000000000000002      0.9346410161513751
-0.44661624993414195      -0.6000000000000002      0.9632136170192809
-0.50277613519569         -0.6000000000000002      0.9457773270389985
-0.512068115072683        -0.6000000000000002      0.9469404138755421
-0.3919161810625826       -0.6000000000000002      1.0367797139482215
-0.41638014509036864      -0.6000000000000002      0.9883589876034905
-0.41277241602229126      -0.6000000000000002      1.0152628830510373
-0.47195200582975666      -0.6000000000000002      0.969988701775608
-0.5571025627380317       -0.6000000000000002      0.6112020615305125
-0.529311451818429        -0.6000000000000002      0.9781573153044097
-0.48976079933295147      -0.6000000000000002      1.0193922782118534
-0.3744899055969869       -0.6000000000000002      1.1000000000000008
-0.6978821266138175       -0.6000000000000002      0.3723468911126581
-0.8333334000000003       -0.6000000000000002      0.5499999999999999
-0.6450120804657726       -0.6000000000000002      0
-0.8333334000000003       -0.6000000000000002      0
-0.6686146523500638       -0.6000000000000002      0.946651585337555
-0.5943024989434593       -0.6000000000000002      1.059202789045322
-0.6088004788074293       -0.6000000000000002      1.1000000000000008
-0.8333334000000003       -0.6000000000000002      1.1000000000000008
1.496251074933979         -0.4465144049492412      -1.4200270131137136E-17
1.3411670064869519        -0.4133476951691412      -1.7268807201881076E-17
1.5085125426927792        0.3022155808591084       -8.347170925377848E-17
1.5338626287151738        0.6000000000000002       0
1.6666666000000008        0.27066091428790917      -8.055231614030223E-17
1.6666666000000008        0.6000000000000002       0
1.3740311497701314        0.6000000000000002       0
1.3070217136222233        0.35552171638111646      -8.840351750463867E-17
1.158300184993612         0.4649257862397772       -9.85254272833707E-17
1.1816716787798374        0.6000000000000002       0
1.6666666000000008        -0.2955697033147024      -2.816546039779042E-17
1.3955915893768585        0.054056452206056614     -6.051237772031729E-17
1.2752146964357354        -0.26636495813425487     -3.086744210842737E-17
1.140222110857669         -0.4398522685451255      -1.4816641566890692E-17
0.9543100243571925        -0.47024956525974365     -1.2004326675313054E-17
0.8192107803588782        -0.5028946816921798      -8.984046683241416E-18
0.9942301559183584        0.4018225966798757       -9.268720945197999E-17
0.9523473750446125        0.6000000000000002       0
1.1229613772721638        0.08385711495585794      -6.326949288147717E-17
1.0432807977666205        -0.2791834119898414      -2.9681496890880094E-17
0.8712320068139011        -0.3348796558011605      -2.4528559202174866E-17
0.9256481666226368        -0.0759193240958165      -4.8487202762494925E-17
0.8215229467120433        0.18729690156851173      -7.283959561145061E-17
0.8022792346300756        0.40000094534549163      -9.25186728474573E-17
0.7930859983341355        0.04601355973467893      -5.976826068645829E-17
0.6311363064174328        0.24274434760577668      -7.796951488205332E-17
0.6153055207485789        0.41419944297266104      -9.383229776252139E-17
0.47540906904749947       0.42231541052562155      -9.458317559955535E-17
0.41185792756362133       0.6000000000000002       0
0.5603760760393228        0.6000000000000002       0
0.49916227534567303       0.29406635589247765      -8.27177544878782E-17
0.7118091511716022        -0.40586284361840325     -1.7961295079175295E-17
0.5119623863296519        -0.4341377819801076      -1.5345337780090192E-17
0.7738606301154546        -0.17769329678807763     -3.907121877995158E-17
0.6621041099005901        -0.28760066559689695     -2.890274449432491E-17
0.7385635539477508        0.6000000000000002       0
0.3680948665618157        -0.439335904837179       -1.486441480669428E-17
0.24512686633446445       -0.45009217185140077     -1.3869260198510524E-17
0.28806897962202543       0.6000000000000002       0
0.3353153225631806        0.4014995738813761       -9.265732383961556E-17
0.5140632261099671        -0.2455820618039567      -3.2790246277118595E-17
0.3753054445224719        -0.27268417014122237     -3.0282797552792116E-17
0.24035742788146808       -0.30045999696222475     -2.77130173474023E-17
0.40274503844250215       0.19833669862833833      -7.3860982018368E-17
0.2280193711140398        -0.18756345671726551     -3.815804554577516E-17
0.33888720697660774       -0.0969523072870249      -4.65412609112088E-17
-0.0973730237148112       0.5152232256135086       -1.0317887522273775E-16
-0.1844343985438047       0.4852955363192696       -1.0041000774538008E-16
-0.07802564504533026      0.6000000000000002       0
-0.18804628938316859      0.6000000000000002       0
0.13917829091843786       -0.4637102210587656      -1.2609337550135957E-17
0.04353456252870582       -0.4812129307899622      -1.0990011605393853E-17
-0.042757516726481114     -0.5050747025227862      -8.782354239882945E-18
0.13995555287679867       -0.31970346348018674     -2.593263904724858E-17
0.5690461698163347        0.011310150669790136     -5.655755037172289E-17
-0.10666965443546887      -0.5320476283665295      -6.286857297113713E-18
0.015670228853285735      -0.3580091986922107      -2.2388646613283277E-17
-0.08710068387849738      -0.4020039566317543      -1.83183138443423E-17
-0.1746289954448784       -0.4868520039417755      -1.0468292534503126E-17
-0.03632817441823623      0.4560995256788386       -9.770883414202946E-17
0.016891931407923836      0.6000000000000002       0
0.18489166567245136       0.6000000000000002       0
0.19605632217165256       0.38388894359163         -9.102801323746246E-17
0.09889401975278682       0.6000000000000002       0
0.06551767485183893       0.4003078765154509       -9.254706968511263E-17
0.20451672709980437       0.11005846296113181      -6.569360453411645E-17
0.09391687303267031       -0.13303974701325422     -4.320250203755611E-17
-0.011813521573322832     -0.25110922723632373     -3.227888075012475E-17
-0.14041250117239695      0.3636157292607988       -8.915236412635834E-17
-0.31247215464605127      0.45056214239568326      -9.7196523273935E-17
-0.31557316725783224      0.6000000000000002       0
-0.4684508564783576       0.42580674338431274      -9.490618877675112E-17
-0.4633918305490636       0.6000000000000002       0
-0.6447374880924847       0.4142593996561204       -9.383784487005945E-17
-0.6410108012924253       0.21510555744446844      -7.541241311456434E-17
-0.8333334000000003       0.4195746900199973       -9.432960801543815E-17
-0.8333334000000003       0.20919415200737987      -7.486549824588517E-17
-0.4533054389707465       0.23641119208356443      -7.738358029211232E-17
-0.2829058964236263       0.28983562769379057      -8.232633349978542E-17
-0.6347310617869018       0.6000000000000002       0
-0.8333334000000003       0.6000000000000002       0
-0.14070310368399058      -0.22497099866138726     -3.4697152682358895E-17
-0.045415903999559214     -0.04438023885342148     -5.14051543134718E-17
-0.29802868452711906      -0.3932510700151956      -1.9128118532145373E-17
-0.8333334000000003       -0.0026924246294296474   -5.5262051913286117E-17
-0.6373601767101652       0.0031214135190740246    -5.579993999444552E-17
-0.039585559345290754     0.1917888476544136       -7.325518410894587E-17
-0.415606747508282        0.002987918026574056     -5.57875891803241E-17
-0.35840177862897454      -0.23621145471962857     -3.365720158876332E-17
-0.2710938512697717       -0.1291036814696725      -4.3566661253632626E-17
-0.23344224163092864      0.11339049081655256      -6.600187903776483E-17
-0.18856516411520383      -0.021457039476126327    -5.352597629236731E-17
-0.48009184517492165      -0.4055394079271369      -1.799121889179442E-17
-0.47027555956412326      -0.21723458940040638     -3.541291432314758E-17
-0.646485757264183        -0.20896976585380575     -3.617756410613926E-17
-0.6520231734631053       -0.4091122654697882      -1.766066316616466E-17
-0.8333334000000003       -0.21457900126623922     -3.565860558068706E-17
-0.8333334000000003       -0.4248203259510403      -1.6207375631290442E-17
1.486666599999999         0.6000000000000002       0.9346410161513751
1.446666599999999         0.6000000000000002       0.9346410161513751
1.5105287587467253        0.6000000000000002       0.9891795239502243
1.4710303031763594        0.6000000000000002       1.0005969040863554
1.4497919100694712        0.6000000000000002       1.1000000000000008
1.5609469539152938        0.6000000000000002       1.1000000000000008
1.4158521941889755        0.6000000000000002       0.9779823546870949
1.486666599999999         0.6000000000000002       0.8653589838486198
1.5066665999999986        0.6000000000000002       0.8999999999999975
1.4875139660826786        0.6000000000000002       0.8186970486536443
1.5172381414676142        0.6000000000000002       0.8272226228808127
1.426666599999999         0.6000000000000002       0.8999999999999975
1.415830288394449         0.6000000000000002       0.8998937904301825
1.446666599999999         0.6000000000000002       0.8653589838486198
1.436825966169526         0.6000000000000002       0.8256981707131841
1.449161488084071         0.6000000000000002       0.7752459828267372
1.4786048281121145        0.6000000000000002       0.7662414022247598
1.5196188434563682        0.6000000000000002       0.7546962281000207
1.5387002494993574        0.6000000000000002       0.9324756083094679
1.5742624352414745        0.6000000000000002       0.9950412070034532
1.5548964819402178        0.6000000000000002       0.8724657559267607
1.60825681881669          0.6000000000000002       0.9695521886540972
1.5680780582191236        0.6000000000000002       0.78332761334795
1.6666666000000008        0.6000000000000002       1.1000000000000008
1.6176822283250796        0.6000000000000002       0.8441145833580893
1.486666599999999         0.6000000000000002       0.23464101615137764
1.4845757276432756        0.6000000000000002       0.3069800791803012
1.5066665999999986        0.6000000000000002       0.20000000000000004
1.5148432879967486        0.6000000000000002       0.30916861113825445
1.446666599999999         0.6000000000000002       0.2346410161513776
1.431274072870341         0.6000000000000002       0.29213760388312665