% Model:              FOC_SAT_meshAnsys_003.mph
% Version:            COMSOL 6.0.0.405
% Date:               Nov 15 2023, 14:30
% Dimension:          3
% Nodes:              10488
% Elements:           20080
% Expressions:        1
% Description:        Material settings
% Length unit:        m
% Coordinates
-0.9333333969116211       -0.3939339816570282      0.20606601238250732
-0.9333333969116211       -0.4469670057296753      0.15303300321102142
-0.9333333969116211       -0.4646446704864502      0.2767767012119293
-0.9333333969116211       -0.5176776647567749      0.22374369204044342
-0.9333333969116211       -0.3762563169002533      0.08232232928276062
-0.9333333969116211       -0.3232232928276062      0.13535533845424652
-0.9333333969116211       -0.5                     0.10000000149011612
-0.9333333969116211       -0.429289311170578       0.02928932197391987
-0.9333333969116211       -0.5707106590270996      0.17071068286895752
-0.8333333730697632       -0.5176776647567749      0.22374369204044342
-0.8500000834465027       -0.5176776647567749      0.22374369204044342
-0.8333333730697632       -0.5707106590270996      0.17071068286895752
-0.8500000834465027       -0.5707106590270996      0.17071068286895752
-0.8500000834465027       -0.4646446704864502      0.2767767012119293
-0.8333333730697632       -0.4646446704864502      0.2767767012119293
-0.8666667342185974       -0.4646446704864502      0.2767767012119293
-0.8666667342185974       -0.5707106590270996      0.17071068286895752
-0.8666667342185974       -0.5176776647567749      0.22374369204044342
-0.8833333849906921       -0.5176776647567749      0.22374369204044342
-0.8833333849906921       -0.5707106590270996      0.17071068286895752
-0.8833333849906921       -0.4646446704864502      0.2767767012119293
-0.9000000953674316       -0.4646446704864502      0.2767767012119293
-0.9000000953674316       -0.5707106590270996      0.17071068286895752
-0.9000000953674316       -0.5176776647567749      0.22374369204044342
-0.9166667461395264       -0.5176776647567749      0.22374369204044342
-0.9166667461395264       -0.5707106590270996      0.17071068286895752
-0.9166667461395264       -0.4646446704864502      0.2767767012119293
-0.8333333730697632       -0.5                     0.10000000149011612
-0.8500000834465027       -0.5                     0.10000000149011612
-0.8333333730697632       -0.429289311170578       0.02928932197391987
-0.8500000834465027       -0.429289311170578       0.02928932197391987
-0.8666667342185974       -0.429289311170578       0.02928932197391987
-0.8666667342185974       -0.5                     0.10000000149011612
-0.8833333849906921       -0.5                     0.10000000149011612
-0.8833333849906921       -0.429289311170578       0.02928932197391987
-0.9000000953674316       -0.429289311170578       0.02928932197391987
-0.9000000953674316       -0.5                     0.10000000149011612
-0.9166667461395264       -0.5                     0.10000000149011612
-0.9166667461395264       -0.429289311170578       0.02928932197391987
-0.8333333730697632       -0.3939339816570282      0.20606601238250732
-0.8500000834465027       -0.3939339816570282      0.20606601238250732
-0.8500000834465027       -0.3232232928276062      0.13535533845424652
-0.8333333730697632       -0.3232232928276062      0.13535533845424652
-0.8666667342185974       -0.3232232928276062      0.13535533845424652
-0.8666667342185974       -0.3939339816570282      0.20606601238250732
-0.8833333849906921       -0.3939339816570282      0.20606601238250732
-0.8833333849906921       -0.3232232928276062      0.13535533845424652
-0.9000000953674316       -0.3232232928276062      0.13535533845424652
-0.9000000953674316       -0.3939339816570282      0.20606601238250732
-0.9166667461395264       -0.3939339816570282      0.20606601238250732
-0.9166667461395264       -0.3232232928276062      0.13535533845424652
-0.8333333730697632       -0.3762563169002533      0.08232232928276062
-0.8500000834465027       -0.3762563169002533      0.08232232928276062
-0.8666667342185974       -0.3762563169002533      0.08232232928276062
-0.8833333849906921       -0.3762563169002533      0.08232232928276062
-0.9000000953674316       -0.3762563169002533      0.08232232928276062
-0.9166667461395264       -0.3762563169002533      0.08232232928276062
-0.8333333730697632       -0.4469670057296753      0.15303300321102142
-0.9333333969116211       -0.5                     1
-0.9333333969116211       -0.4469670057296753      0.9469670057296753
-0.9333333969116211       -0.429289311170578       1.0707106590270996
-0.9333333969116211       -0.3762563169002533      1.017677664756775
-0.9333333969116211       -0.5707106590270996      0.9292893409729004
-0.9333333969116211       -0.5176776647567749      0.8762562870979309
-0.9333333969116211       -0.3232232928276062      0.9646446704864502
-0.9333333969116211       -0.4646446704864502      0.8232232928276062
-0.9333333969116211       -0.3939339816570282      0.8939340114593506
-0.9166667461395264       -0.5176776647567749      0.8762562870979309
-0.9166667461395264       -0.5707106590270996      0.9292893409729004
-0.9166667461395264       -0.4646446704864502      0.8232232928276062
-0.9000000953674316       -0.5707106590270996      0.9292893409729004
-0.9000000953674316       -0.5176776647567749      0.8762562870979309
-0.9000000953674316       -0.4646446704864502      0.8232232928276062
-0.8833333849906921       -0.5176776647567749      0.8762562870979309
-0.8833333849906921       -0.5707106590270996      0.9292893409729004
-0.8833333849906921       -0.4646446704864502      0.8232232928276062
-0.8666667342185974       -0.5707106590270996      0.9292893409729004
-0.8666667342185974       -0.5176776647567749      0.8762562870979309
-0.8666667342185974       -0.4646446704864502      0.8232232928276062
-0.8500000834465027       -0.4646446704864502      0.8232232928276062
-0.8500000834465027       -0.5176776647567749      0.8762562870979309
-0.8500000834465027       -0.5707106590270996      0.9292893409729004
-0.8333333730697632       -0.4646446704864502      0.8232232928276062
-0.8333333730697632       -0.5707106590270996      0.9292893409729004
-0.8333333730697632       -0.5176776647567749      0.8762562870979309
-0.9166667461395264       -0.5                     1
-0.9166667461395264       -0.429289311170578       1.0707106590270996
-0.9000000953674316       -0.429289311170578       1.0707106590270996
-0.9000000953674316       -0.5                     1
-0.8833333849906921       -0.5                     1
-0.8833333849906921       -0.429289311170578       1.0707106590270996
-0.8666667342185974       -0.429289311170578       1.0707106590270996
-0.8666667342185974       -0.5                     1
-0.8500000834465027       -0.5                     1
-0.8500000834465027       -0.429289311170578       1.0707106590270996
-0.8333333730697632       -0.429289311170578       1.0707106590270996
-0.8333333730697632       -0.5                     1
-0.9166667461395264       -0.3939339816570282      0.8939340114593506
-0.9166667461395264       -0.3232232928276062      0.9646446704864502
-0.9000000953674316       -0.3232232928276062      0.9646446704864502
-0.9000000953674316       -0.3939339816570282      0.8939340114593506
-0.8833333849906921       -0.3939339816570282      0.8939340114593506
-0.8833333849906921       -0.3232232928276062      0.9646446704864502
-0.8666667342185974       -0.3232232928276062      0.9646446704864502
-0.8666667342185974       -0.3939339816570282      0.8939340114593506
-0.8500000834465027       -0.3939339816570282      0.8939340114593506
-0.8500000834465027       -0.3232232928276062      0.9646446704864502
-0.8333333730697632       -0.3232232928276062      0.9646446704864502
-0.8333333730697632       -0.3939339816570282      0.8939340114593506
-0.9166667461395264       -0.3762563169002533      1.017677664756775
-0.9000000953674316       -0.3762563169002533      1.017677664756775
-0.8833333849906921       -0.3762563169002533      1.017677664756775
-0.8666667342185974       -0.3762563169002533      1.017677664756775
-0.8500000834465027       -0.3762563169002533      1.017677664756775
-0.8333333730697632       -0.3762563169002533      1.017677664756775
-0.8333333730697632       -0.4469670057296753      0.9469670057296753
-0.9333333969116211       0.3939339816570282       0.20606601238250732
-0.9333333969116211       0.3232232928276062       0.13535533845424652
-0.9333333969116211       0.4469670057296753       0.15303300321102142
-0.9333333969116211       0.3762563169002533       0.08232232928276062
-0.9333333969116211       0.5176776647567749       0.22374369204044342
-0.9333333969116211       0.4646446704864502       0.2767767012119293
-0.9333333969116211       0.5                      0.10000000149011612
-0.9333333969116211       0.5707106590270996       0.17071068286895752
-0.9333333969116211       0.429289311170578        0.02928932197391987
-0.8333333730697632       0.3762563169002533       0.08232232928276062
-0.8333333730697632       0.429289311170578        0.02928932197391987
-0.8500000834465027       0.3762563169002533       0.08232232928276062
-0.8500000834465027       0.3232232928276062       0.13535533845424652
-0.8333333730697632       0.3232232928276062       0.13535533845424652
-0.8500000834465027       0.429289311170578        0.02928932197391987
-0.8666667342185974       0.3232232928276062       0.13535533845424652
-0.8666667342185974       0.3762563169002533       0.08232232928276062
-0.8666667342185974       0.429289311170578        0.02928932197391987
-0.8833333849906921       0.3762563169002533       0.08232232928276062
-0.8833333849906921       0.3232232928276062       0.13535533845424652
-0.8833333849906921       0.429289311170578        0.02928932197391987
-0.9000000953674316       0.3232232928276062       0.13535533845424652
-0.9000000953674316       0.3762563169002533       0.08232232928276062
-0.9000000953674316       0.429289311170578        0.02928932197391987
-0.9166667461395264       0.3762563169002533       0.08232232928276062
-0.9166667461395264       0.429289311170578        0.02928932197391987
-0.9166667461395264       0.3232232928276062       0.13535533845424652
-0.8333333730697632       0.3939339816570282       0.20606601238250732
-0.8500000834465027       0.3939339816570282       0.20606601238250732
-0.8500000834465027       0.4646446704864502       0.2767767012119293
-0.8333333730697632       0.4646446704864502       0.2767767012119293
-0.8666667342185974       0.3939339816570282       0.20606601238250732
-0.8666667342185974       0.4646446704864502       0.2767767012119293
-0.8833333849906921       0.3939339816570282       0.20606601238250732
-0.8833333849906921       0.4646446704864502       0.2767767012119293
-0.9000000953674316       0.4646446704864502       0.2767767012119293
-0.9000000953674316       0.3939339816570282       0.20606601238250732
-0.9166667461395264       0.3939339816570282       0.20606601238250732
-0.9166667461395264       0.4646446704864502       0.2767767012119293
-0.8333333730697632       0.5                      0.10000000149011612
-0.8333333730697632       0.5707106590270996       0.17071068286895752
-0.8500000834465027       0.5                      0.10000000149011612
-0.8500000834465027       0.5707106590270996       0.17071068286895752
-0.8666667342185974       0.5707106590270996       0.17071068286895752
-0.8666667342185974       0.5                      0.10000000149011612
-0.8833333849906921       0.5                      0.10000000149011612
-0.8833333849906921       0.5707106590270996       0.17071068286895752
-0.9000000953674316       0.5707106590270996       0.17071068286895752
-0.9000000953674316       0.5                      0.10000000149011612
-0.9166667461395264       0.5                      0.10000000149011612
-0.9166667461395264       0.5707106590270996       0.17071068286895752
-0.8333333730697632       0.5176776647567749       0.22374369204044342
-0.8500000834465027       0.5176776647567749       0.22374369204044342
-0.8666667342185974       0.5176776647567749       0.22374369204044342
-0.8833333849906921       0.5176776647567749       0.22374369204044342
-0.9000000953674316       0.5176776647567749       0.22374369204044342
-0.9166667461395264       0.5176776647567749       0.22374369204044342
-0.8333333730697632       0.4469670057296753       0.15303300321102142
-0.9333333969116211       0.3939339816570282       0.8939340114593506
-0.9333333969116211       0.4469670057296753       0.9469670057296753
-0.9333333969116211       0.4646446704864502       0.8232232928276062
-0.9333333969116211       0.5176776647567749       0.8762562870979309
-0.9333333969116211       0.3762563169002533       1.017677664756775
-0.9333333969116211       0.3232232928276062       0.9646446704864502
-0.9333333969116211       0.5                      1
-0.9333333969116211       0.429289311170578        1.0707106590270996
-0.9333333969116211       0.5707106590270996       0.9292893409729004
-0.8333333730697632       0.3762563169002533       1.017677664756775
-0.8500000834465027       0.3762563169002533       1.017677664756775
-0.8333333730697632       0.3232232928276062       0.9646446704864502
-0.8500000834465027       0.3232232928276062       0.9646446704864502
-0.8500000834465027       0.429289311170578        1.0707106590270996
-0.8333333730697632       0.429289311170578        1.0707106590270996
-0.8666667342185974       0.429289311170578        1.0707106590270996
-0.8666667342185974       0.3232232928276062       0.9646446704864502
-0.8666667342185974       0.3762563169002533       1.017677664756775
-0.8833333849906921       0.3762563169002533       1.017677664756775
-0.8833333849906921       0.3232232928276062       0.9646446704864502
-0.8833333849906921       0.429289311170578        1.0707106590270996
-0.9000000953674316       0.429289311170578        1.0707106590270996
-0.9000000953674316       0.3232232928276062       0.9646446704864502
-0.9000000953674316       0.3762563169002533       1.017677664756775
-0.9166667461395264       0.3762563169002533       1.017677664756775
-0.9166667461395264       0.3232232928276062       0.9646446704864502
-0.9166667461395264       0.429289311170578        1.0707106590270996
-0.8333333730697632       0.3939339816570282       0.8939340114593506
-0.8500000834465027       0.3939339816570282       0.8939340114593506
-0.8333333730697632       0.4646446704864502       0.8232232928276062
-0.8500000834465027       0.4646446704864502       0.8232232928276062
-0.8666667342185974       0.4646446704864502       0.8232232928276062
-0.8666667342185974       0.3939339816570282       0.8939340114593506
-0.8833333849906921       0.3939339816570282       0.8939340114593506
-0.8833333849906921       0.4646446704864502       0.8232232928276062
-0.9000000953674316       0.4646446704864502       0.8232232928276062
-0.9000000953674316       0.3939339816570282       0.8939340114593506
-0.9166667461395264       0.3939339816570282       0.8939340114593506
-0.9166667461395264       0.4646446704864502       0.8232232928276062
-0.8333333730697632       0.5                      1
-0.8500000834465027       0.5                      1
-0.8500000834465027       0.5707106590270996       0.9292893409729004
-0.8333333730697632       0.5707106590270996       0.9292893409729004
-0.8666667342185974       0.5707106590270996       0.9292893409729004
-0.8666667342185974       0.5                      1
-0.8833333849906921       0.5                      1
-0.8833333849906921       0.5707106590270996       0.9292893409729004
-0.9000000953674316       0.5707106590270996       0.9292893409729004
-0.9000000953674316       0.5                      1
-0.9166667461395264       0.5                      1
-0.9166667461395264       0.5707106590270996       0.9292893409729004
-0.8333333730697632       0.5176776647567749       0.8762562870979309
-0.8500000834465027       0.5176776647567749       0.8762562870979309
-0.8666667342185974       0.5176776647567749       0.8762562870979309
-0.8833333849906921       0.5176776647567749       0.8762562870979309
-0.9000000953674316       0.5176776647567749       0.8762562870979309
-0.9166667461395264       0.5176776647567749       0.8762562870979309
-0.8333333730697632       0.4469670057296753       0.9469670057296753
-0.9380683302879333       0.2703399658203125       1.3295141458511353
-0.9351624846458435       0.2749437391757965       1.3311917781829834
-0.9377890229225159       0.25109702348709106      1.329675316810608
-0.9422045946121216       0.253934770822525        1.3271260261535645
-0.9409741759300232       0.2657361626625061       1.3278363943099976
-0.94343501329422         0.24213336408138275      1.3264156579971313
-0.9333735108375549       0.2482592612504959       1.3322246074676514
-0.9375097751617432       0.23185408115386963      1.3298366069793701
-0.8892481327056885       0.26860135793685913      1.3577004671096802
-0.8853207230567932       0.2616615891456604       1.3599679470062256
-0.900446891784668        0.26899874210357666      1.351234793663025
-0.9029445052146912       0.28025713562965393      1.3497928380966187
-0.8931755423545837       0.2755410969257355       1.3554329872131348
-0.9127135276794434       0.2849732041358948       1.3441526889801025
-0.923937976360321        0.27995845675468445      1.337672233581543
-0.9225096106529236       0.25882771611213684      1.3384969234466553
-0.9116457104682922       0.2693961560726166       1.3447691202163696
-0.8979493379592896       0.2577403485774994       1.3526767492294312
-0.9315845370292664       0.2215747833251953       1.3332575559616089
-0.9210812449455261       0.23769694566726685      1.3393216133117676
-0.9040349721908569       0.21723560988903046      1.349163293838501
-0.9078495502471924       0.2157043069601059       1.3469609022140503
-0.9000452756881714       0.22543829679489136      1.3514666557312012
-0.8941033482551575       0.22530516982078552      1.3548972606658936
-0.9002203941345215       0.2187669277191162       1.351365566253662
-0.8879862427711487       0.23184341192245483      1.358428955078125
-0.8960555195808411       0.23364099860191345      1.353770136833191
-0.9059872031211853       0.2255714386701584       1.3480361700057983
-0.886653482913971        0.2467525154352188       1.3591984510421753
-0.8970023989677429       0.24569067358970642      1.353223443031311
-0.9105779528617859       0.2538191080093384       1.3453856706619263
-0.9135342240333557       0.2316341996192932       1.3436788320541382
-0.919717013835907        0.21863953769207         1.3401092290878296
-0.9041248559951782       0.23543857038021088      1.3491113185882568
-0.9073513746261597       0.24462884664535522      1.3472485542297363
-0.8479447960853577       0.28025737404823303      1.2545298337936401
-0.8381759524345398       0.2755415737628937       1.2601698637008667
-0.8532516360282898       0.28093284368515015      1.2614741325378418
-0.8625256419181824       0.2849865257740021       1.2559514045715332
-0.8577135801315308       0.2849732041358948       1.2488898038864136
-0.8439775705337524       0.27687913179397583      1.2669968605041504
-0.8342483043670654       0.26860156655311584      1.2624374628067017
-0.8303207159042358       0.2616615891456604       1.2647051811218262
-0.839217483997345        0.2690742015838623       1.2695668935775757
-0.8344573378562927       0.2612692713737488       1.272136926651001
-0.8689380288124084       0.27995845675468445      1.2424094676971436
-0.8727741241455078       0.28080809116363525      1.2504069805145264
-0.8801624774932861       0.2749437391757965       1.235929012298584
-0.8830225467681885       0.27662965655326843      1.24486243724823
-0.8316410779953003       0.24677614867687225      1.263942837715149
-0.8329614400863647       0.2318907231092453       1.2631804943084717
-0.8346915245056152       0.24774961173534393      1.2705446481704712
-0.8349257111549377       0.2342299520969391       1.2689523696899414
-0.883068323135376        0.27033987641334534      1.2342512607574463
-0.8872054815292358       0.2699635922908783       1.2424019575119019
-0.8859742283821106       0.26573601365089417      1.2325735092163086
-0.8913884162902832       0.26329749822616577      1.2399413585662842
-0.8872045874595642       0.25393468141555786      1.2318631410598755
-0.8920210003852844       0.2519800662994385       1.2396080493927002
-0.8884350061416626       0.24213333427906036      1.231152892112732
-0.8926535248756409       0.24066263437271118      1.2392746210098267
-0.8390899896621704       0.22532938420772552      1.259642243385315
-0.8452185392379761       0.21876803040504456      1.2561038732528687
-0.8410983085632324       0.2270849496126175       1.2662869691848755
-0.8472709655761719       0.2199399471282959       1.2636216878890991
-0.8490340113639832       0.21723616123199463      1.2539010047912598
-0.852849543094635        0.2157043069601059       1.2516981363296509
-0.8522042632102966       0.21767951548099518      1.2594093084335327
-0.8571375608444214       0.21541906893253326      1.2551970481872559
-0.8825097680091858       0.23185406625270844      1.2345737218856812
-0.8869435787200928       0.23114611208438873      1.2425849437713623
-0.876584529876709        0.2215747833251953       1.23799467086792
-0.8812335729598999       0.22162958979606628      1.2458953857421875
-0.8647170662879944       0.21863953769207         1.2448464632034302
-0.8691855669021606       0.21852433681488037      1.2505462169647217
-0.867337703704834        0.28499987721443176      1.2630130052566528
-0.8585584759712219       0.2816082835197449       1.2684184312820435
-0.8766101598739624       0.28165772557258606      1.2584044933319092
-0.8497791886329651       0.27821671962738037      1.273823857307434
-0.8441866040229797       0.26954683661460876      1.2766962051391602
-0.8385940194129944       0.26087695360183716      1.2795686721801758
-0.8377419710159302       0.24872305989265442      1.277146339416504
-0.8858826160430908       0.27831560373306274      1.2537959814071655
-0.8913426399230957       0.26958727836608887      1.2505526542663574
-0.8368899822235107       0.23656918108463287      1.2747241258621216
-0.8431066870689392       0.22884051501750946      1.2729318141937256
-0.8968026041984558       0.2608589828014374       1.2473093271255493
-0.8968373537063599       0.2500254511833191       1.2473528385162354
-0.8968720436096191       0.239191934466362        1.2473963499069214
-0.891377329826355        0.23043817281723022      1.2505961656570435
-0.8493233919143677       0.22111186385154724      1.2711395025253296
-0.8553745150566101       0.21812285482883453      1.2649177312850952
-0.8614255785942078       0.21513384580612183      1.2586959600448608
-0.8858826160430908       0.22168441116809845      1.2537959814071655
-0.8736540675163269       0.21840912103652954      1.2562459707260132
-0.8634416460990906       0.28163304924964905      1.276760458946228
-0.8722853660583496       0.28499993681907654      1.2714861631393433
-0.8545979261398315       0.27826616168022156      1.2820347547531128
-0.8813756704330444       0.28165775537490845      1.2666103839874268
-0.8904659152030945       0.27831560373306274      1.2617344856262207
-0.8490488529205322       0.2695562243461609       1.285060167312622
-0.8434997797012329       0.2608462870121002       1.288085699081421
-0.8430737853050232       0.2493615299463272       1.2868746519088745
-0.8426477909088135       0.2378767877817154       1.2856634855270386
-0.8959487080574036       0.26957643032073975      1.2585235834121704
-0.9014315009117126       0.26083728671073914      1.2553125619888306
-0.8485091328620911       0.22963745892047882      1.283178448677063
-0.8543704748153687       0.22139813005924225      1.2806932926177979
-0.9014488458633423       0.25001272559165955      1.2553343772888184
-0.9014661908149719       0.23918816447257996      1.2553560733795166
-0.8959660530090332       0.2304362803697586       1.2585452795028687
-0.8904659152030945       0.22168441116809845      1.2617344856262207
-0.8618500232696533       0.21823252737522125      1.2750107049942017
-0.869329571723938        0.21506692469120026      1.2693281173706055
-0.8798977732658386       0.21837566792964935      1.265531301498413
-0.8772329688072205       0.2849999964237213       1.2799593210220337
-0.8683248162269592       0.28165778517723083      1.2851024866104126
-0.8861411213874817       0.28165778517723083      1.2748162746429443
-0.859416663646698        0.27831560373306274      1.290245532989502
-0.8539111614227295       0.2695655822753906       1.2934242486953735
-0.8950492739677429       0.27831560373306274      1.2696731090545654
-0.9005548357963562       0.2695655822753906       1.2664945125579834
-0.8484055995941162       0.2608155906200409       1.2966028451919556
-0.848405659198761        0.25                     1.2966028451919556
-0.848405659198761        0.2391844093799591       1.2966029644012451
-0.8539116382598877       0.23043440282344818      1.2934250831604004
-0.9060603380203247       0.2608155906200409       1.2633159160614014
-0.9060603380203247       0.25                     1.2633159160614014
-0.8594175577163696       0.22168441116809845      1.2902470827102661
-0.8683255314826965       0.21834219992160797      1.285103678703308
-0.9060603380203247       0.2391844093799591       1.2633159160614014
-0.9005548357963562       0.23043440282344818      1.2664945125579834
-0.8950492739677429       0.22168441116809845      1.2696731090545654
-0.8772335052490234       0.2150000035762787       1.27996027469635
-0.8861414194107056       0.21834219992160797      1.2748167514801025
-0.8729082345962524       0.28165778517723083      1.2930411100387573
-0.8818163275718689       0.2849999964237213       1.2878979444503784
-0.8640000820159912       0.27831560373306274      1.2981842756271362
-0.8907244801521301       0.28165778517723083      1.2827547788619995
-0.8996326327323914       0.27831560373306274      1.2776116132736206
-0.8584945201873779       0.2695655822753906       1.3013628721237183
-0.8529889583587646       0.2608155906200409       1.3045414686203003
-0.9051381349563599       0.2695655822753906       1.2744330167770386
-0.9106436967849731       0.2608155906200409       1.2712544202804565
-0.8529923558235168       0.24999986588954926      1.3045473098754883
-0.852995753288269        0.23918414115905762      1.3045530319213867
-0.8585160374641418       0.23043425381183624      1.301400065422058
-0.8640363216400146       0.22168438136577606      1.29824697971344
-0.9106436967849731       0.25                     1.2712544202804565
-0.9106436967849731       0.2391844093799591       1.2712544202804565
-0.8729375600814819       0.21834218502044678      1.2930936813354492
-0.881838858127594        0.2150000035762787       1.2879403829574585
-0.9051381349563599       0.23043440282344818      1.2744330167770386
-0.8996326327323914       0.22168441116809845      1.2776116132736206
-0.8907357454299927       0.21834219992160797      1.2827759981155396
-0.8863996863365173       0.2849999964237213       1.2958365678787231
-0.8953078389167786       0.28165778517723083      1.2906934022903442
-0.8774915933609009       0.28165778517723083      1.300979733467102
-0.8685834407806396       0.27831560373306274      1.306122899055481
-0.8630778789520264       0.2695655822753906       1.309301495552063
-0.904215931892395        0.27831560373306274      1.2855502367019653
-0.9097214937210083       0.2695655822753906       1.2823716402053833
-0.8575723767280579       0.2608155906200409       1.312480092048645
-0.8575791120529175       0.2499997317790985       1.3124916553497314
-0.9152269959449768       0.2608155906200409       1.2791930437088013
-0.9152269959449768       0.25                     1.2791930437088013
-0.8575859069824219       0.23918387293815613      1.3125032186508179
-0.8631204962730408       0.2304341197013855       1.3093750476837158
-0.8686550855636597       0.22168436646461487      1.3062468767166138
-0.8775496482849121       0.21834218502044678      1.3010836839675903
-0.9152269959449768       0.2391844093799591       1.2791930437088013
-0.9097214937210083       0.23043440282344818      1.2823716402053833
-0.8864442110061646       0.2150000035762787       1.295920491218567
-0.904215931892395        0.22168441116809845      1.2855502367019653
-0.8953300714492798       0.21834219992160797      1.2907353639602661
-0.9087992906570435       0.27831560373306274      1.29348886013031
-0.8998948335647583       0.28165778517723083      1.2986384630203247
-0.8909903764724731       0.2849999964237213       1.303788185119629
-0.8820852041244507       0.28165775537490845      1.3089364767074585
-0.8731800317764282       0.2783155143260956       1.3140846490859985
-0.8676729202270508       0.269565612077713        1.3172603845596313
-0.8621658682823181       0.26081570982933044      1.3204362392425537
-0.9133825898170471       0.27831560373306274      1.3014273643493652
-0.904481828212738        0.28165778517723083      1.3065835237503052
-0.914304792881012        0.2695655822753906       1.2903101444244385
-0.9188881516456604       0.2695655822753906       1.2982487678527832
-0.9198103547096252       0.2608155906200409       1.2871315479278564
-0.8622320294380188       0.2499733865261078       1.3205333948135376
-0.8622981905937195       0.23913104832172394      1.320630669593811
-0.9198103547096252       0.25                     1.2871315479278564
-0.9198103547096252       0.2391844093799591       1.2871315479278564
-0.8679376840591431       0.23040343821048737      1.3176896572113037
-0.8735771775245667       0.2216758280992508       1.3147486448287964
-0.8823837637901306       0.21833814680576324      1.309572696685791