% Model:              FOC_SAT_mesh003.mph
% Version:            COMSOL 6.0.0.405
% Date:               Nov 12 2023, 16:08
% Dimension:          3
% Nodes:              4801
% Elements:           8461
% Expressions:        1
% Description:        Material settings
% Length unit:        m
% Coordinates
-1.3133333999999999       -0.4292893218813454      -0.5207106781186546
-1.3133333999999999       -0.5707106781186548      -0.37928932188134507
-1.3133333999999999       -0.3232233047033633      -0.4146446609406724
-1.3133333999999999       -0.4646446609406729      -0.27322330470336287
-1.2800000666666664       -0.5707106781186548      -0.379289321881345
-1.2800000666666664       -0.46464466094067286     -0.27322330470336287
-1.2466667333333334       -0.5707106781186548      -0.37928932188134507
-1.2466667333333334       -0.46464466094067286     -0.2732233047033628
-1.2133334                -0.5707106781186548      -0.37928932188134507
-1.2133334                -0.46464466094067286     -0.27322330470336287
-1.2800000666666664       -0.4292893218813454      -0.5207106781186546
-1.2466667333333334       -0.42928932188134544     -0.5207106781186546
-1.2133334                -0.4292893218813454      -0.5207106781186546
-1.3133333999999999       -0.4646446609406728      0.2732233047033638
-1.3133333999999999       -0.5707106781186548      0.379289321881346
-1.3133333999999999       -0.3232233047033632      0.4146446609406731
-1.3133333999999999       -0.4292893218813454      0.5207106781186552
-1.2800000666666664       -0.46464466094067275     0.2732233047033638
-1.2800000666666664       -0.5707106781186548      0.37928932188134595
-1.2466667333333334       -0.46464466094067286     0.2732233047033638
-1.2466667333333334       -0.5707106781186548      0.37928932188134606
-1.2133334                -0.46464466094067275     0.2732233047033638
-1.2133334                -0.5707106781186548      0.379289321881346
-1.2800000666666664       -0.4292893218813454      0.5207106781186552
-1.2466667333333334       -0.42928932188134544     0.5207106781186552
-1.2133334                -0.4292893218813454      0.5207106781186552
-1.2800000666666664       -0.32322330470336325     -0.4146446609406724
-1.2466667333333334       -0.32322330470336325     -0.4146446609406724
-1.2133334                -0.3232233047033633      -0.4146446609406724
-1.2800000666666664       -0.3232233047033632      0.4146446609406731
-1.2466667333333334       -0.3232233047033632      0.4146446609406731
-1.2133334                -0.3232233047033632      0.4146446609406731
-1.3133334                0.4292893218813412       -0.5207106781186538
-1.3133334                0.3232233047033603       -0.41464466094067043
-1.3133334                0.5707106781186523       -0.37928932188134606
-1.3133334                0.46464466094067153      -0.27322330470336265
-1.2800000666666667       0.42928932188134117      -0.5207106781186537
-1.2800000666666667       0.32322330470336025      -0.4146446609406704
-1.2466667333333337       0.4292893218813412       -0.5207106781186537
-1.2466667333333337       0.32322330470336025      -0.41464466094067043
-1.2133334000000002       0.4292893218813412       -0.5207106781186538
-1.2133334000000002       0.32322330470336036      -0.41464466094067043
-1.2800000666666667       0.4646446609406715       -0.27322330470336265
-1.2466667333333337       0.46464466094067153      -0.27322330470336265
-1.2133334000000002       0.4646446609406716       -0.27322330470336265
-1.3133333999999999       0.46464466094067236      0.27322330470336315
-1.3133333999999999       0.32322330470336275      0.41464466094067276
-1.3133334                0.5707106781186543       0.37928932188134534
-1.3133333999999999       0.42928932188134483      0.5207106781186548
-1.2800000666666664       0.32322330470336275      0.41464466094067276
-1.2800000666666664       0.42928932188134483      0.5207106781186548
-1.2466667333333334       0.3232233047033627       0.4146446609406727
-1.2466667333333334       0.42928932188134483      0.5207106781186548
-1.2133334                0.3232233047033628       0.41464466094067276
-1.2133334                0.42928932188134483      0.5207106781186548
-1.2800000666666664       0.4646446609406723       0.2732233047033631
-1.2466667333333334       0.4646446609406723       0.27322330470336315
-1.2133334                0.46464466094067236      0.27322330470336315
-1.2800000666666667       0.5707106781186523       -0.379289321881346
-1.2466667333333337       0.5707106781186523       -0.3792893218813461
-1.2133334000000002       0.5707106781186523       -0.37928932188134606
-1.2800000666666667       0.5707106781186543       0.3792893218813453
-1.2466667333333337       0.5707106781186545       0.3792893218813455
-1.2133334                0.5707106781186543       0.37928932188134534
-1.3153321348293259       0.2747481095420613       0.7810938204021461
-1.2938996432702612       0.2850000000000004       0.7934678751731765
-1.2969993451862807       0.2747487373415296       0.7493392416969825
-1.2755663099369279       0.2850000000000004       0.7617136103677472
-1.3242105324027165       0.2500000000000004       0.7759678751731764
-1.3058771990693832       0.25000000000000033      0.744213610367747
-1.315332134829326        0.22525189045793947      0.781093820402146
-1.2969993451862807       0.22525126265847126      0.7493392416969825
-1.2938996432702612       0.2150000000000003       0.7934678751731765
-1.2755663099369279       0.2150000000000003       0.7617136103677472
-1.2786660118529474       0.2747487373415295       0.7175849768915531
-1.2572329766035946       0.2850000000000005       0.7299593455623179
-1.2603321348293262       0.2747481095420613       0.6858310259858579
-1.2388996432702613       0.2850000000000004       0.6982050807568884
-1.2875438657360498       0.2500000000000004       0.7124593455623177
-1.2786660118529474       0.2252512626584713       0.7175849768915531
-1.2572329766035946       0.21500000000000033      0.7299593455623179
-1.2692105324027165       0.2500000000000004       0.6807050807568883
-1.260332134829326        0.2252518904579395       0.6858310259858579
-1.2388996432702613       0.21500000000000033      0.6982050807568884
-1.2724671517111965       0.2747481095420613       0.8058419299442071
-1.254133274687575        0.2747487373415296       0.7740879790385118
-1.263588754137806        0.2500000000000004       0.8109678751731766
-1.2452554208044726       0.2500000000000004       0.7792136103677473
-1.2357999413542418       0.2747487373415296       0.7423337142330824
-1.2724671517111963       0.22525189045793947      0.805841929944207
-1.254133274687575        0.2252512626584712       0.7740879790385117
-1.2174671517111966       0.27474810954206125      0.7105791355279188
-1.2269220874711393       0.2500000000000004       0.7474593455623179
-1.2357999413542418       0.22525126265847115      0.7423337142330824
-1.208588754137806        0.2500000000000004       0.7157050807568884
-1.2174671517111966       0.22525189045793947      0.7105791355279187
-1.2584900846126437       0.20000000000000034      0.6321367205045924
-1.2822009134594832       0.20000000000000034      0.6732050807568882
-1.2584900846126432       0.3000000000000005       0.6321367205045925
-1.2822009134594832       0.3000000000000005       0.6732050807568885
-1.234779255765804        0.20000000000000032      0.5910683602522965
-1.2347792557658037       0.3000000000000005       0.5910683602522966
-1.2110684269189647       0.20000000000000034      0.5500000000000003
-1.2110684269189644       0.30000000000000054      0.5500000000000003
-1.211278412725462        0.20000000000000034      0.6483819433061849
-1.2426559070234098       0.20000000000000034      0.696036400867861
-1.162265039747706        0.20000000000000034      0.6654700538379258
-1.1955983730810393       0.20000000000000034      0.7232050807568883
-1.1829037535784714       0.20000000000000034      0.5993226728609283
-1.128931706414373        0.20000000000000034      0.6077350269189634
-1.158023336059425        0.20000000000000034      0.5500000000000003
-1.0955983730810395       0.20000000000000034      0.5500000000000003
-1.2112784127254619       0.3000000000000005       0.648381943306185
-1.2426559070234096       0.3000000000000005       0.6960364008678612
-1.162265039747706        0.3000000000000005       0.665470053837926
-1.1955983730810393       0.3000000000000005       0.7232050807568885
-1.1829037535784714       0.3000000000000005       0.5993226728609284
-1.1289317064143727       0.3000000000000005       0.6077350269189634
-1.1580233360594243       0.30000000000000043      0.5500000000000002
-1.0955983730810395       0.30000000000000054      0.5500000000000003
-1.2633334000000003       -0.15000000000000038     -0.09499999999999967
-1.2633334000000003       -0.15000000000000044     0.09500000000000045
-1.2633334000000003       -4.2370620900733513E-16  -0.09499999999999961
-1.2633334000000003       -4.83554168928535E-16    0.09500000000000051
-1.2633334000000003       0.14999999999999952      -0.09499999999999956
-1.2633334000000003       0.14999999999999947      0.09500000000000056
-1.2466667333333337       -0.15000000000000038     -0.09499999999999967
-1.2466667333333337       -0.15000000000000044     0.09500000000000045
-1.2300000666666673       -0.1500000000000004      -0.0949999999999997
-1.2300000666666673       -0.1500000000000005      0.09500000000000047
-1.2133334000000002       -0.15000000000000038     -0.09499999999999967
-1.2133334000000002       -0.15000000000000044     0.09500000000000045
-1.2466667333333337       -4.163336342344338E-16   -0.0949999999999996
-1.2466667333333337       0.14999999999999952      -0.09499999999999956
-1.2300000666666673       -3.885780586188049E-16   -0.0949999999999996
-1.2300000666666673       0.14999999999999958      -0.09499999999999958
-1.2133334000000002       -4.2370620900733513E-16  -0.09499999999999961
-1.2133334000000002       0.14999999999999952      -0.09499999999999956
-1.2466667333333337       -4.996003610813205E-16   0.09500000000000051
-1.2466667333333337       0.14999999999999947      0.09500000000000056
-1.2300000666666673       -4.996003610813205E-16   0.09500000000000051
-1.2300000666666673       0.14999999999999952      0.09500000000000058
-1.2133334000000002       -4.83554168928535E-16    0.09500000000000051
-1.2133334000000002       0.14999999999999947      0.09500000000000056
-1.2633334000000003       -0.032500000000000286    0.21750000000000086
-1.2633334000000003       -0.0325000000000003      0.2825000000000008
-1.2633334000000003       0.03249999999999973      0.21750000000000086
-1.2633334000000003       0.03249999999999972      0.2825000000000008
-1.2466667333333337       -0.03250000000000028     0.21750000000000086
-1.2466667333333337       -0.03250000000000029     0.2825000000000008
-1.2300000666666673       -0.032500000000000286    0.21750000000000091
-1.2300000666666673       -0.032500000000000306    0.28250000000000086
-1.2133334000000002       -0.03250000000000028     0.21750000000000086
-1.2133334000000002       -0.03250000000000029     0.2825000000000008
-1.2466667333333337       0.03249999999999974      0.21750000000000086
-1.2300000666666673       0.032499999999999744     0.21750000000000091
-1.2133334000000002       0.032499999999999744     0.21750000000000086
-1.2466667333333337       0.032499999999999724     0.2825000000000008
-1.2300000666666673       0.03249999999999974      0.28250000000000086
-1.2133334000000002       0.03249999999999973      0.2825000000000008
-1.2633334000000003       -0.03250000000000032     0.36749999999999977
-1.2633334000000003       -0.03250000000000035     0.4324999999999998
-1.2633334000000003       0.0324999999999997       0.36749999999999977
-1.2633334000000003       0.032499999999999675     0.4324999999999998
-1.2466667333333337       -0.03250000000000033     0.36749999999999977
-1.2466667333333337       -0.032500000000000355    0.4324999999999997
-1.2300000666666673       -0.03250000000000034     0.3674999999999999
-1.2300000666666673       -0.03250000000000037     0.4324999999999999
-1.2133334000000002       -0.03250000000000035     0.36749999999999977
-1.2133334000000002       -0.032500000000000376    0.4324999999999998
-1.2466667333333337       0.032499999999999696     0.36749999999999977
-1.2300000666666673       0.032499999999999696     0.3674999999999999
-1.2133334000000002       0.032499999999999675     0.36749999999999977
-1.2466667333333337       0.03249999999999967      0.4324999999999997
-1.2300000666666673       0.03249999999999966      0.4324999999999999
-1.2133334000000002       0.03249999999999965      0.4324999999999998
-1.2133334000000002       -0.6000000000000003      -0.08800000000000009
-0.8883333999999998       -0.6000000000000002      -0.08800000000000009
-1.2133334000000002       -0.6000000000000003      0.08799999999999987
-0.8883333999999998       -0.6000000000000002      0.08799999999999987
-1.2133334000000002       0.4750000000000001       0.6096270106619109
-1.2133334000000002       0.4750000000000001       0.6500000000000002
-1.2133334000000002       0.48500000000000004      0.5989845739835712
-1.2133334000000002       0.48500000000000004      0.6500000000000002
-1.2133334000000005       0.5818607129569688       0.5500000000000002
-1.2133334                0.5310463546945171       0.5600000000000002
-1.2133334000000005       0.6000000000000001       0.5500000000000002
-1.2133334000000005       0.6000000000000001       0.5600000000000002
-1.2133334000000002       0.47500000000000014      0.5775875051142065
-1.2133334000000002       0.48500000000000004      0.5600000000000002
-1.2133334000000007       0.497711067697745        0.5500000000000002
-1.2133334000000005       0.5253123580224609       0.5500000000000002
-1.0133334000000003       0.47500000000000003      0.7093415441874941
-1.0133334000000003       0.4750000000000001       0.7500000000000002
-1.0561575526329563       0.4750000000000001       0.6938675289307655
-1.0555593699376846       0.4750000000000001       0.7500000000000002
-1.0133334                0.4750000000000001       0.6672711466541561
-1.0524466558544499       0.47500000000000014      0.6482700697028271
-1.1142650529411675       0.4750000000000001       0.6560050476713596
-1.1133334000000004       0.47500000000000003      0.7500000000000002
-1.1633334000000004       0.4750000000000002       0.7000000000000004
-1.1631724390452105       0.4750000000000001       0.6625073473334877
-1.0133334000000003       0.4750000000000001       0.625208446618299
-1.040791204830745        0.47500000000000014      0.6124784378536471
-1.0832549016240605       0.4750000000000001       0.6223852788872196
-1.0301221634936641       0.47500000000000014      0.5894025475850551
-1.0133334000000003       0.47500000000000003      0.5870646750526879
-1.1512373066035237       0.4750000000000001       0.6034707371788325
-1.0586845772217892       0.4750000000000001       0.5913416915302679
-1.1167205045971529       0.4750000000000001       0.5942068232231142
-1.0382218141724466       0.47500000000000014      0.5747024295788115
-1.0133334000000003       0.4750000000000001       0.5600000000000002
-1.1348836897847179       0.4750000000000001       0.5717980456713962
-1.1671165240554857       0.4750000000000001       0.5767695255412882
-1.0802466547555123       0.47500000000000014      0.5500000000000002
-1.0133334000000003       0.4750000000000001       0.5500000000000002
-1.0406794613010075       0.47500000000000026      0.5500000000000003
-1.1251371402755173       0.47500000000000014      0.5500000000000002
-1.17004690603371         0.47500000000000003      0.55
-1.2133334000000002       0.4750000000000001       0.5500000000000002
-1.1640401034665502       0.48500000000000004      0.6992932965334503
-1.1133334000000004       0.48500000000000004      0.7500000000000002
-1.0133334                0.4850000000000001       0.709341544187494
-1.0133334                0.48500000000000004      0.667271146654156
-1.0413702792873594       0.4850000000000001       0.7187824215884691
-1.0524723888150576       0.4850000000000001       0.695232916151325
-1.0555593699376846       0.4850000000000001       0.7500000000000002
-1.0133334000000003       0.4850000000000001       0.7500000000000002
-1.0133334                0.48500000000000004      0.6252084466182991
-1.057695878393209        0.48500000000000004      0.656497642088841
-1.0370044014444038       0.4850000000000001       0.581739174871793
-1.0566765640957612       0.48500000000000004      0.600355489451542
-1.0133334                0.4850000000000001       0.5870646750526878
-1.107740375058525        0.48500000000000004      0.6347585851553003
-1.1543165818371703       0.48500000000000004      0.6251480722822187
-1.0406794613010075       0.4850000000000002       0.5600000000000003
-1.0802466547555123       0.4850000000000001       0.5600000000000002
-1.0133334000000003       0.4850000000000001       0.5600000000000002
-1.1251371402755173       0.4850000000000001       0.5600000000000003
-1.17004690603371         0.485                    0.5600000000000002
-1.2133334000000002       0.5999999999999999       -0.22579999999999995
-1.2133334000000002       0.5999999999999999       9.280770596475918E-17
-1.0508334                0.5999999999999999       -0.22579999999999997
-1.0508334                0.5999999999999999       1.1102230246251568E-16
-1.2133334000000002       0.5999999999999999       0.22580000000000017
-1.0508334                0.5999999999999999       0.22580000000000017
-0.8883333999999997       0.5999999999999998       1.1015494072452725E-16
-0.8883333999999998       0.6                      0.22580000000000017
-0.8883333999999998       0.6                      -0.22579999999999995
-1.1817222035089008       -8.831731829518213E-4    0.5500000000000002
-1.1817222035089008       -8.831731829518482E-4    0.5727000000000002
-1.1817222035089008       0.1671168268170483       0.5500000000000002
-1.1817222035089008       0.1671168268170483       0.5727000000000001
-1.1817222035089008       -0.16888317318295196     0.5500000000000002
-1.1817222035089008       -0.16888317318295196     0.5727000000000001
-0.9337222035089008       -0.16888317318295196     0.5500000000000002
-0.9337222035089008       -0.16888317318295196     0.5727000000000001
-0.9337222035089008       -8.831731829518213E-4    0.5727000000000002
-0.9337222035089008       0.1671168268170483       0.5727000000000001
-0.9337222035089008       0.1671168268170483       0.5500000000000002
-1.1633334                0.34999999999999953      0.6700000000000002
-1.1633334                0.34999999999999953      0.7300000000000001
-1.1633334                0.4499999999999996       0.6700000000000002
-1.1633334                0.4499999999999996       0.7300000000000001
-1.1633333999999997       0.3499999999999995       0.61
-1.1633333999999997       0.4499999999999995       0.61
-1.1633334                0.34999999999999953      0.5500000000000002
-1.1633334                0.4499999999999996       0.5500000000000002
-1.0133333999999998       0.3499999999999996       0.6700000000000002
-1.0133333999999998       0.3499999999999996       0.7300000000000001
-1.0133333999999996       0.34999999999999953      0.61
-1.0133333999999998       0.3499999999999996       0.5500000000000002
-1.0133333999999998       0.4499999999999996       0.7300000000000001
-1.0133333999999998       0.4499999999999996       0.6700000000000002
-1.0133333999999996       0.4499999999999995       0.61
-1.0133333999999998       0.4499999999999996       0.5500000000000002
0.42166660000000017       -0.44999999999999996     -0.5500000000000003
0.42166660000000034       1.8113711751615163E-16   -0.5500000000000002
1.1916666000000002        -0.4499999999999998      -0.5500000000000003
1.1916666000000002        3.3133218391157016E-16   -0.5500000000000002
0.42166659999999984       0.45000000000000034      -0.5500000000000002
1.1916666000000002        0.45000000000000046      -0.55
-1.1183334000000003       -0.45000000000000023     -0.5500000000000003
-1.1183334000000003       -7.632783294297951E-17   -0.5500000000000002
-0.34833339999999985      -0.4500000000000001      -0.5500000000000004
-0.34833339999999985      4.589325832427362E-17    -0.5500000000000002
-1.1183334000000003       0.45                     -0.55
-0.3483334000000001       0.4500000000000002       -0.55
-1.1221119252292475       -0.2690983005625052      0.6350000000000001
-1.1221119252292475       -0.2690983005625052      0.6799999999999999
-1.0633334                -0.25000000000000006     0.6350000000000001
-1.0633334                -0.25000000000000006     0.68
-1.0633334                -0.4500000000000001      0.6350000000000001
-1.0633334                -0.4500000000000001      0.68
-1.1221119252292473       -0.4309016994374947      0.6350000000000001
-1.1221119252292473       -0.4309016994374947      0.6799999999999999
-1.1584390516295155       -0.31909830056250527     0.6350000000000001
-1.1584390516295155       -0.31909830056250527     0.6799999999999999
-1.1584390516295155       -0.38090169943749475     0.6350000000000001
-1.1584390516295155       -0.38090169943749475     0.6799999999999999
-0.9682277483704848       -0.3809016994374948      0.6350000000000001
-0.9682277483704848       -0.31909830056250527     0.6350000000000001
-0.9682277483704848       -0.3809016994374948      0.68
-0.9682277483704848       -0.31909830056250527     0.68
-1.0045548747707527       -0.2690983005625052      0.6350000000000001
-1.0045548747707527       -0.2690983005625052      0.68
-1.0045548747707527       -0.43090169943749496     0.6350000000000001
-1.0045548747707527       -0.43090169943749496     0.6799999999999999
-1.1225625833528818       -0.28357258180288514     0.6500000000000002
-1.0633334                -0.26100000000000007     0.6500000000000002
-1.1262643071212406       -0.28706909287875954     0.68
-1.0633334                -0.26100000000000007     0.68
-1.122562583352882        -0.41642741819711504     0.6500000000000004
-1.1262643071212406       -0.41293090712124064     0.6800000000000002
-1.0633334                -0.4390000000000001      0.6500000000000002
-1.0633334                -0.4390000000000001      0.68
-1.1523333999999998       -0.35000000000000003     0.68
-1.1523334000000003       -0.34999999999982623     0.6500000000000002
-1.0004024928787596       -0.28706909287875954     0.68
-1.004104216647086        -0.28357258180291434     0.6500000000000004
-0.9743334000000001       -0.35000000000000003     0.68
-0.9743334                -0.3500000000000574      0.6500000000000001
-1.0004024928787594       -0.41293090712124053     0.6799999999999999
-1.0041042166470842       -0.4164274181970841      0.6500000000000002
-1.0959295777611289       -0.3948647897468823      0.5500000000000002
-1.0959295777611289       -0.3948647897468825      0.5783333333333334
-1.11607512352084         -0.36713682478519133     0.5500000000000002
-1.11607512352084         -0.3671368247851914      0.5783333333333334
-1.0633334                -0.4054559299233822      0.5500000000000002
-1.0633334                -0.4054559299233822      0.5783333333333334
-1.0959295777611286       -0.3051352102531178      0.5500000000000002
-1.0959295777611289       -0.3051352102531176      0.5783333333333334
-1.0633334                -0.2945440700766179      0.5500000000000002
-1.0633334                -0.2945440700766179      0.5783333333333334
-1.1160751235208402       -0.33286317521480885     0.5500000000000003
-1.1160751235208402       -0.3328631752148088      0.5783333333333335
-1.0959295777611289       -0.30513521025311763     0.6066666666666668
-1.0633333999999999       -0.2945440700766179      0.6066666666666668
-1.0959295777611289       -0.39486478974688244     0.6066666666666668
-1.11607512352084         -0.3671368247851914      0.6066666666666668
-1.0633333999999999       -0.4054559299233822      0.6066666666666668
-1.1160751235208402       -0.3328631752148088      0.6066666666666668
-1.0959295777611289       -0.3051352102531178      0.6350000000000001
-1.0633334                -0.2945440700766179      0.6350000000000001
-1.0959295777611286       -0.3948647897468824      0.6350000000000002
-1.11607512352084         -0.36713682478519133     0.6350000000000001
-1.0633334                -0.4054559299233822      0.6350000000000001
-1.1160751235208397       -0.33286317521480885     0.6350000000000001
-1.0105916764791603       -0.3328631752148088      0.5500000000000002
-1.0307372222388713       -0.3051352102531178      0.5500000000000002
-1.0105916764791603       -0.33286317521480874     0.5783333333333334
-1.0307372222388713       -0.3051352102531177      0.5783333333333334
-1.0105916764791603       -0.36713682478519133     0.5500000000000002
-1.0105916764791603       -0.3671368247851914      0.5783333333333334
-1.0307372222388715       -0.3948647897468823      0.5500000000000002
-1.0307372222388713       -0.39486478974688244     0.5783333333333334
-1.0105916764791603       -0.3671368247851914      0.6066666666666668
-1.0105916764791603       -0.3328631752148088      0.6066666666666667
-1.0307372222388713       -0.3948647897468824      0.6066666666666668
-1.0307372222388713       -0.30513521025311774     0.6066666666666668
-1.0307372222388713       -0.3948647897468823      0.6350000000000001
-1.0105916764791605       -0.36713682478519133     0.6350000000000001
-1.0105916764791603       -0.3328631752148088      0.635
-1.0307372222388715       -0.3051352102531178      0.6350000000000002
-0.9536742089598169       0.5900000000000001       0.5600000000000002
-0.9885473308924289       0.5900000000000001       0.5600000000000002
-0.923254570895152        0.5870254404130721       0.5600000000000002
-0.9870032844874863       0.585423000640014        0.5600000000000002
-1.0133334000000003       0.5900000000000001       0.5600000000000002
-1.0133334000000003       0.5681107859557073       0.5600000000000002
-0.9883334000000007       0.5825000000000001       0.5600000000000002
-1.0133334000000003       0.5375000000000001       0.5600000000000002
-0.9118657482374859       0.5900000000000002       0.5600000000000003
-0.8954184012911023       0.5881686979742755       0.5600000000000002
-0.8603173764072799       0.5869420078373743       0.5600000000000002
-0.8383334000000006       0.5825000000000001       0.5600000000000002
-0.8305407957885231       0.5832365923231693       0.5600000000000002
-0.8285103002920315       0.5869433937723506       0.5600000000000002
-0.8383334000000006       0.48250000000000015      0.5600000000000002
-0.8278179174031557       0.4825092947011923       0.5600000000000002
-1.0043676983419834       0.499525299175211        0.5600000000000002
-0.9883334000000007       0.48250000000000015      0.5600000000000002
-0.9936001648820908       0.4750000000000001       0.5600000000000002
-0.866630159340381        0.5900000000000003       0.5600000000000003
-0.8133334000000003       0.5900000000000002       0.5600000000000002
-0.8960337644622668       0.4750000000000001       0.56
-0.8576906491781583       0.4750000000000001       0.56
-0.8133334000000003       0.5324999999999995       0.5600000000000002
-0.8133334000000003       0.47500000000000014      0.5600000000000002
-0.9834564336953571       0.5900000000000001       0.5827230045680877
-1.0133334000000003       0.59                     0.583836804619487
-0.9751667742461692       0.5900000000000001       0.6089230270800086
-1.0133334000000003       0.5900000000000001       0.6192176970305519
-0.9535551153250399       0.5900000000000001       0.6386895310696196
-1.0133334000000003       0.5900000000000002       0.6717898526881072
-0.9595099483536742       0.5900000000000001       0.5762422937440602
-0.9407390309617456       0.5900000000000001       0.5957358349603757
-0.9431802014303097       0.5900000000000001       0.6923949632448648
-0.9133334000000003       0.5900000000000001       0.7500000000000002
-1.0133334000000003       0.5900000000000001       0.7500000000000002
-0.9293328461684358       0.5900000000000001       0.613747676338448
-0.9121932559796415       0.5900000000000001       0.6632797585824347
-0.8573241018233003       0.5900000000000001       0.6939907018233002
-0.8847908003275171       0.5900000000000001       0.6183402347746786
-0.8133334000000003       0.5900000000000001       0.6500000000000002
-0.8527085001636447       0.5900000000000001       0.5918778653663029
-0.8133334000000003       0.5900000000000001       0.6013558781531229
-1.0133334000000005       0.6000000000000002       0.6163079637000721
-1.0133334000000003       0.6000000000000001       0.6687113446137761
-0.9502530560204989       0.6000000000000001       0.5500000000000002
-0.9667743961569513       0.6000000000000001       0.6526304063297212
-1.0133334000000003       0.6000000000000001       0.7500000000000002
-0.9133334000000003       0.6000000000000001       0.7500000000000002
-0.8883333999999997       0.6000000000000001       0.5500000000000002
-0.8133334000000003       0.6000000000000001       0.6500000000000002
-0.8133334000000003       0.6000000000000001       0.5500000000000002
-0.9883334000000007       0.48250000000000004      0.6800000000000002
-0.9883334000000007       0.4825000000000001       0.7400000000000001
-0.9883334000000007       0.5825                   0.6800000000000002
-0.9883334000000007       0.5825                   0.7400000000000001
-0.9883334000000005       0.4825                   0.6199999999999999
-0.9883334000000005       0.5824999999999999       0.6199999999999999
-0.8383334000000006       0.48250000000000004      0.6800000000000002
-0.8383334000000006       0.4825000000000001       0.7400000000000001
-0.8383334000000003       0.4825                   0.6199999999999999
-0.8383334000000006       0.5825                   0.7400000000000001