% Model:              FOC_SAT.mph
% Version:            COMSOL 6.0.0.405
% Date:               Nov 24 2022, 04:13
% Dimension:          3
% Nodes:              4591
% Elements:           7972
% Expressions:        1
% Description:        Material settings
% Length unit:        m
% Coordinates
-1.3133333999999999       -0.4646446609406729      -0.27322330470336287
-1.3133333999999999       -0.3232233047033633      -0.4146446609406724
-1.3133333999999999       -0.5707106781186548      -0.37928932188134507
-1.3133333999999999       -0.4292893218813454      -0.5207106781186546
-1.2800000666666664       -0.5707106781186548      -0.379289321881345
-1.2800000666666664       -0.46464466094067286     -0.27322330470336287
-1.2466667333333334       -0.5707106781186548      -0.37928932188134507
-1.2466667333333334       -0.46464466094067286     -0.2732233047033628
-1.2133334                -0.5707106781186548      -0.37928932188134507
-1.2133334                -0.46464466094067286     -0.27322330470336287
-1.2800000666666664       -0.4292893218813454      -0.5207106781186546
-1.2466667333333334       -0.42928932188134544     -0.5207106781186546
-1.2133334                -0.4292893218813454      -0.5207106781186546
-1.3133333999999999       -0.4646446609406728      0.2732233047033638
-1.3133333999999999       -0.5707106781186548      0.379289321881346
-1.3133333999999999       -0.3232233047033632      0.4146446609406731
-1.3133333999999999       -0.4292893218813454      0.5207106781186552
-1.2133334                -0.5707106781186548      0.379289321881346
-1.2133334                -0.46464466094067275     0.2732233047033638
-1.2133334                -0.4292893218813454      0.5207106781186552
-1.2800000666666664       -0.32322330470336325     -0.4146446609406724
-1.2466667333333334       -0.32322330470336325     -0.4146446609406724
-1.2133334                -0.3232233047033633      -0.4146446609406724
-1.2133334                -0.3232233047033632      0.4146446609406731
-1.3133334                0.46464466094067153      -0.27322330470336265
-1.3133334                0.5707106781186523       -0.37928932188134606
-1.3133334                0.3232233047033603       -0.41464466094067043
-1.3133334                0.4292893218813412       -0.5207106781186538
-1.2800000666666667       0.42928932188134117      -0.5207106781186537
-1.2800000666666667       0.32322330470336025      -0.4146446609406704
-1.2466667333333337       0.4292893218813412       -0.5207106781186537
-1.2466667333333337       0.32322330470336025      -0.41464466094067043
-1.2133334000000002       0.4292893218813412       -0.5207106781186538
-1.2133334000000002       0.32322330470336036      -0.41464466094067043
-1.2800000666666667       0.4646446609406715       -0.27322330470336265
-1.2466667333333337       0.46464466094067153      -0.27322330470336265
-1.2133334000000002       0.4646446609406716       -0.27322330470336265
-1.3133333999999999       0.42928932188134483      0.5207106781186548
-1.3133334                0.5707106781186543       0.37928932188134534
-1.3133333999999999       0.32322330470336275      0.41464466094067276
-1.3133333999999999       0.46464466094067236      0.27322330470336315
-1.2800000666666664       0.42928932188134483      0.5207106781186548
-1.2800000666666664       0.32322330470336275      0.41464466094067276
-1.2466667333333334       0.42928932188134483      0.5207106781186548
-1.2466667333333334       0.3232233047033627       0.4146446609406727
-1.2133334                0.42928932188134483      0.5207106781186548
-1.2133334                0.3232233047033628       0.41464466094067276
-1.2800000666666664       0.4646446609406723       0.2732233047033631
-1.2466667333333334       0.4646446609406723       0.27322330470336315
-1.2133334                0.46464466094067236      0.27322330470336315
-1.2800000666666667       0.5707106781186523       -0.379289321881346
-1.2466667333333337       0.5707106781186523       -0.3792893218813461
-1.2133334000000002       0.5707106781186523       -0.37928932188134606
-1.2800000666666669       0.5707106781186543       0.37928932188134534
-1.2466667333333339       0.5707106781186545       0.37928932188134545
-1.2133334                0.5707106781186543       0.37928932188134534
-1.3201491037148207       0.26749967738108005      0.7783127421194275
-1.2938996432702612       0.2500000000000004       0.7934678751731765
-1.2938996432702612       0.2850000000000004       0.7934678751731765
-1.2676501828257014       0.23250032261892065      0.8086230082269252
-1.2676501828257016       0.26749967738108005      0.8086230082269255
-1.2938996432702612       0.2150000000000003       0.7934678751731765
-1.3201491037148207       0.23250032261892073      0.7783127421194276
-1.294994234699643        0.27826612363353936      0.7540829562348996
-1.2755663099369279       0.2850000000000004       0.7617136103677472
-1.3087915074273313       0.25727691232013283      0.7507910097967673
-1.2755663099369279       0.2150000000000003       0.7617136103677472
-1.2976895466249965       0.23550910032113279      0.7363136170631153
-1.2572329766035946       0.2850000000000005       0.7299593455623179
-1.2896258020224063       0.2659520358880891       0.723758622142224
-1.2572329766035946       0.21500000000000033      0.7299593455623179
-1.273555279311491        0.2217338763664614       0.7169495962414173
-1.2833048249186552       0.24272308767986797      0.7066467807753631
-1.2388996432702613       0.2850000000000004       0.6982050807568884
-1.2651491037148208       0.26749967738108005      0.6830499477031394
-1.2388996432702613       0.21500000000000033      0.6982050807568884
-1.2651491037148208       0.23250032261892073      0.6830499477031394
-1.249494461621867        0.24272308767986786      0.7850261751547017
-1.2431734845181162       0.2659520358880891       0.767914333787841
-1.2592440072290316       0.22173387636646139      0.7747233596886476
-1.2378050518408794       0.2782661236335394       0.7375899996951654
-1.235109739915526        0.23550910032113276      0.7553593388669496
-1.224007779113191        0.25727691232013283      0.7408819461332977
-1.2126501828257017       0.26749967738108005      0.7133602138106375
-1.2126501828257015       0.23250032261892067      0.7133602138106373
-1.2822009134594832       0.3000000000000005       0.6732050807568885
-1.2110684269189644       0.30000000000000054      0.5500000000000003
-1.2822009134594832       0.20000000000000034      0.6732050807568882
-1.2110684269189647       0.20000000000000034      0.5500000000000003
-1.2388996432702613       0.3000000000000005       0.6982050807568884
-1.2388996432702613       0.20000000000000034      0.6982050807568881
-1.1955983730810393       0.3000000000000005       0.7232050807568885
-1.1955983730810393       0.20000000000000034      0.7232050807568883
-1.218339576038118        0.20000000000000034      0.6451190450437008
-1.0955983730810395       0.20000000000000034      0.5500000000000003
-1.219300430014861        0.3000000000000005       0.6467098847111717
-1.0955983730810395       0.30000000000000054      0.5500000000000003
-1.2633334000000003       -0.15000000000000044     0.09500000000000045
-1.2633334000000003       -4.83554168928535E-16    0.09500000000000051
-1.2633334000000003       -0.15000000000000038     -0.09499999999999967
-1.2633334000000003       -4.2370620900733513E-16  -0.09499999999999961
-1.2633334000000003       0.14999999999999947      0.09500000000000056
-1.2633334000000003       0.14999999999999952      -0.09499999999999956
-1.2133334000000002       -0.15000000000000038     -0.09499999999999967
-1.2133334000000002       -0.15000000000000044     0.09500000000000045
-1.2133334000000002       -4.2370620900733513E-16  -0.09499999999999961
-1.2133334000000002       0.14999999999999952      -0.09499999999999956
-1.2133334000000002       -4.83554168928535E-16    0.09500000000000051
-1.2133334000000002       0.14999999999999947      0.09500000000000056
-1.2633334000000003       -0.0325000000000003      0.2825000000000008
-1.2633334000000003       0.03249999999999972      0.2825000000000008
-1.2633334000000003       -0.032500000000000286    0.21750000000000086
-1.2633334000000003       0.03249999999999973      0.21750000000000086
-1.2133334000000002       -0.03250000000000029     0.2825000000000008
-1.2133334000000002       -0.03250000000000028     0.21750000000000086
-1.2133334000000002       0.032499999999999744     0.21750000000000086
-1.2133334000000002       0.03249999999999973      0.2825000000000008
-1.2633334000000003       -0.03250000000000035     0.4324999999999998
-1.2633334000000003       0.032499999999999675     0.4324999999999998
-1.2633334000000003       -0.03250000000000032     0.36749999999999977
-1.2633334000000003       0.0324999999999997       0.36749999999999977
-1.2133334000000002       -0.032500000000000376    0.4324999999999998
-1.2133334000000002       -0.03250000000000035     0.36749999999999977
-1.2133334000000002       0.032499999999999675     0.36749999999999977
-1.2133334000000002       0.03249999999999965      0.4324999999999998
-1.2133334000000002       -0.54685027981835        0.4962238115111364
-1.2133334000000002       -0.6000000000000005      0.4333490486456113
-1.2133334000000002       -0.6000000000000004      0.5500000000000002
-1.2133334                -0.48373631602898826     0.5500000000000002
-1.2133334000000002       0.5756917524402331       0.5112874935315218
-1.2133334000000002       0.5999999999999999       0.5253508077255266
-1.2133334000000002       0.5999999999999998       0.4875697279399307
-1.2133334000000002       0.5743972135821206       0.48696944047557317
-1.2133334000000002       0.5999999999999998       0.4364937054710014
-1.2133334000000002       -0.6000000000000003      0.3435803722830555
-1.2133334000000002       -0.39367376624401607     0.55
-1.2133334000000002       -0.5498683003189737      0.2822684564885568
-1.2133334000000002       -0.6000000000000002      0.2464087040198759
-1.2133334000000002       -0.2335812628977112      0.5500000000000002
-1.2133334000000002       -0.24511300290685487     0.4608392811982437
-1.2133334000000002       -0.30892141406393064     0.5500000000000003
-1.2133334000000005       0.6000000000000001       0.5500000000000002
-1.2133334000000002       0.544991617298208        0.4745794905528484
-1.2133334000000002       0.5488642867585404       0.5143306284593759
-1.2133334000000002       0.2958095366411488       0.5500000000000002
-1.2133334000000007       0.3406071524808617       0.5500000000000002
-1.2133334000000002       0.3117072375360957       0.5117163700190714
-1.2133334000000002       0.27408097961538325      0.5012358783256716
-1.2133334000000005       0.4302023841602872       0.5500000000000003
-1.2133334000000005       0.38540476832057446      0.5500000000000003
-1.2133334000000002       0.3566451046837991       0.517914189932238
-1.2133334000000002       0.4750000000000001       0.5500000000000002
-1.2133334000000002       0.5999999999999998       0.37645715233522126
-1.2133334000000002       0.5999999999999999       0.3074071369967503
-1.2133334000000002       0.5800316055269045       -0.33744190087571363
-1.2133333999999998       0.5999999999999999       -0.30344870681562197
-1.2133334000000005       0.6000000000000001       -0.3667186533903825
-1.2133334000000002       0.5617391321234171       -0.2682164443934564
-1.2133334000000002       -0.5490411996451283      -0.4873223108353401
-1.2133334000000002       -0.6000000000000002      -0.5500000000000003
-1.2133334000000005       -0.6000000000000003      -0.4244772449141275
-1.2133334000000002       -0.6000000000000002      -0.32490280973578417
-1.2133334000000002       -0.6000000000000003      -0.23045486356762704
-1.2133334000000002       -0.541024663537626       -0.2322483636167934
-1.2133334000000002       -0.548691399728054       -0.17276825272281515
-1.2133334000000002       -0.4971101951772072      -0.19325568299701107
-1.2133334000000002       -0.6000000000000003      -0.1524254070778489
-1.2133334000000002       -0.5474855965000698      -0.09956561209886974
-1.2133334000000002       -0.4859790667981041      -0.11935762601197795
-1.2133334000000002       -0.6000000000000003      0.08799999999999987
-1.2133334000000002       -0.6000000000000003      0.1551698438498659
-1.2133334000000002       -0.5392122357312968      0.10697177473826658
-1.2133334000000002       -0.5641601743413335      0.04728224454960655
-1.2133334000000005       -0.6000000000000003      0.029333333333333222
-1.2133334000000002       -0.5580785334592355      7.727164572385565E-4
-1.2133334000000002       -0.6000000000000003      -0.029333333333333433
-1.2133334000000002       -0.5640012613771201      -0.04656440955584492
-1.2133334000000002       -0.6000000000000003      -0.08800000000000009
-1.2133334000000002       -0.5270687273578953      0.1897174221543598
-1.2133334000000002       -0.41322482392669774     0.12478299649986595
-1.2133334000000002       -0.5152959128161597      -0.041688212714682774
-1.2133334000000002       -0.5049916882416169      0.03439181346590155
-1.2133334000000002       -0.4213898663132322      -0.03272265941246433
-1.2133334000000002       -0.3165887122365717      0.24472206714363082
-1.2133333999999998       -0.3941943635571518      -0.5500000000000002
-1.2133334000000002       0.251011920801436        0.5500000000000003
-1.2133334000000002       0.2508784678444933       0.5155422187806261
-1.2133334000000005       0.20487882179209788      0.5500000000000003
-1.2133334000000002       0.21567367068159002      0.4950644359319245
-1.2133334000000002       0.1766848147062262       0.5009970831362406
-1.2133334000000007       0.1523095414738962       0.5500000000000003
-1.2133334000000002       0.24355331621994802      0.4674046711120307
-1.2133334000000002       0.2805843560840386       0.4540924579988126
-1.2133334000000002       0.18751040711750241      0.4385091735439812
-1.2133334000000005       -0.16835836181118966     0.5500000000000003
-1.2133334000000002       -0.1746268614101254      0.47087829003764875
-1.2133334000000002       -0.19490256363743086     0.34967310149907394
-1.2133334000000002       -0.20008544100964687     0.21069233601807427
-1.2133334000000002       -0.123620650474771       0.4981080617546835
-1.2133334000000005       -0.10613183488705515     0.5500000000000003
-1.2133334000000002       -0.040805945085732986    0.5500000000000002
-1.2133334000000002       -0.06551226960587696     0.4893630372547521
-1.2133334000000005       0.02179147098144609      0.5500000000000003
-1.2133334000000002       -0.007820678911771904    0.4947810908693088
-1.2133334000000002       0.04456376070546757      0.5082070888920948
-1.2133334000000002       -0.10717453517481693     0.41000067709213717
-1.2133334000000002       0.10775794335413061      0.39918416663125267
-1.2133334000000002       0.08993374528906052      0.3262462879762831
-1.2133334000000002       0.17964911812892434      0.3403536930131612
-1.2133334000000002       0.24280241224318386      0.4025944787945805
-1.2133334000000002       0.589800002252565        -0.402237757363357
-1.2133334                0.6                      -0.4388377587669352
-1.2133334000000002       0.551669316645986        -0.4911336513836409
-1.2133334000000002       0.6                      -0.55
-1.2133334000000005       0.39419436355715126      -0.5500000000000002
-1.2133334000000002       0.32150534901159783      -0.48443830116190645
-1.2133334000000002       0.1982176362935874       -0.5500000000000002
-1.2133334000000002       0.5474558267975786       0.2349306124693689
-1.2133334000000002       0.5999999999999999       0.22580000000000017
-1.2133334000000002       0.5271799981649827       0.1787792019988238
-1.2133334                0.5999999999999998       0.1354800000000001
-1.2133334000000002       0.5094404526434748       0.07970615070290145
-1.2133334000000002       0.5026699101023178       -0.018002671196196196
-1.2133334000000002       0.42771154088782337      0.025491034220724306
-1.2133334000000002       0.516593358020868        -0.1888346983467861
-1.2133334000000002       0.5999999999999999       0.045160000000000096
-1.2133334                0.5999999999999998       -0.04515999999999993
-1.2133334000000002       0.5345515363480681       -0.09667654139241151
-1.2133334000000002       0.5999999999999999       -0.22579999999999995
-1.2133334000000002       0.5999999999999999       -0.1354799999999999
-1.2133334000000002       0.4024853485822756       -0.10392860334982332
-1.2133334000000002       -0.01890314619911216     0.3162498852648909
-1.2133334000000002       0.019393532983960928     0.3285810914774803
-1.2133334000000002       -0.07374440568356773     0.32403524756011975
-1.2133334000000002       -0.11307664519276175     0.248986346608092
-1.2133334000000002       0.40701803836428757      -0.20326511714393825
-1.2133334000000002       0.234369687257088        -0.41200833356483674
-1.2133334000000002       0.3207253941885368       -0.28357387183267235
-1.2133334000000002       0.30664014560282604      -0.20169593508001066
-1.2133334000000002       -0.19821763629359188     -0.5500000000000004
-1.2133334000000002       -0.38310037634631827     -0.17234415261385275
-1.2133334000000002       0.10976140976751958      -0.40468529125005365
-1.2133334000000002       7.28583859910259E-17     -0.5500000000000002
-1.2133334000000002       0.21819008567118775      -0.28127752864622946
-1.2133334000000002       0.08323684132269002      -0.23997609985367224
-1.2133334000000002       0.2139536171282687       -0.18883170744713001
-1.2133334000000002       0.2695523982160201       -0.12308935040061966
-1.2133334000000002       -0.2926844233586232      -0.27597250696163994
-1.2133334000000002       -0.05015144883998564     -0.40076305828133973
-1.2133334000000002       -0.1830826624792388      -0.34437929549170054
-1.2133334000000002       -0.19256229215045179     -0.2125923770221279
-1.2133334000000002       -0.2990510652555885      -0.02244659079038298
-1.2133334000000002       -0.27889443458779245     0.13824440577641053
-1.2133334000000002       -0.2568470944377829      -0.1532161619833057
-1.2133334000000002       -0.08149188840618732     -0.22793598385434613
-1.2133334000000002       -0.10139916349752534     0.17777029804386624
-1.2133334000000002       0.1126335360398791       0.4813280368492548
-1.2133334000000005       0.08835944304387477      0.5500000000000003
-1.2133334000000002       0.17597489239504802      0.22775598640070474
-1.2133334000000002       0.0768164846415903       0.23549375362975491
-1.2133334000000002       0.0932278683978741       0.17515898151746453
-1.2133334000000002       0.3042745879048423       0.280880823367259
-1.2133334000000002       0.2809793399763408       0.009217161870456703
-1.2133334000000002       0.38952843542066745      0.14282726567727844
-1.2133334000000002       0.2541858095464294       0.15718030500094257
-1.0466667333333333       -0.6000000000000002      0.08799999999999986
-1.0466667333333335       -0.6000000000000003      0.029333333333333107
-1.0466667333333344       -0.6000000000000003      -0.02933333333333322
-1.0466667333333337       -0.6000000000000003      -0.0880000000000001
-0.8800000666666667       -0.6000000000000002      0.08799999999999986
-0.8800000666666674       -0.6000000000000002      0.02933333333333333
-0.880000066666667        -0.6000000000000002      -0.02933333333333333
-0.880000066666667        -0.6000000000000002      -0.08800000000000009
-0.7133333999999998       -0.6000000000000002      0.08799999999999987
-0.7133334000000003       -0.6000000000000002      0.02933333333333333
-0.7133333999999999       -0.6000000000000002      -0.029333333333333437
-0.7133334000000002       -0.6000000000000002      -0.08800000000000009
-0.5466667333333337       -0.6000000000000003      -0.0880000000000001
-0.5466667333333336       -0.6000000000000002      -0.029333333333333437
-0.5466667333333333       -0.6000000000000001      0.08799999999999986
-0.5466667333333334       -0.6000000000000002      0.029333333333333107
-0.38000006666666664      -0.6000000000000001      0.08799999999999986
-0.38000006666666686      -0.6000000000000002      0.02933333333333322
-0.38000006666666686      -0.6000000000000002      -0.02933333333333355
-0.38000006666666686      -0.6000000000000001      -0.08800000000000009
-0.21333339999999987      -0.6000000000000001      0.08799999999999987
-0.21333340000000003      -0.6000000000000001      -0.08800000000000008
-0.2133333999999998       -0.6000000000000001      -0.02933333333333333
-0.2133333999999998       -0.6000000000000001      0.02933333333333322
-0.04666673333333327      -0.6000000000000001      -0.029333333333333437
-0.0466667333333335       -0.6000000000000001      -0.08800000000000009
-0.04666673333333327      -0.6000000000000001      0.02933333333333322
-0.04666673333333311      -0.6000000000000001      0.08799999999999986
0.11999993333333328       -0.6000000000000001      -0.08800000000000009
0.11999993333333306       -0.6000000000000001      -0.029333333333333437
0.11999993333333363       -0.6000000000000002      0.08799999999999988
0.1199999333333335        -0.6000000000000001      0.02933333333333322
0.28666660000000005       -0.6000000000000001      -0.08800000000000009
0.28666660000000027       -0.6000000000000001      -0.029333333333333437
0.28666660000000027       -0.6000000000000001      0.029333333333333107
1.2866666000000004        -0.5999999999999999      -0.08800000000000009
1.2866666000000007        -0.5999999999999999      -0.029333333333333433
1.1199999333333333        -0.5999999999999999      -0.08800000000000008
1.2866666000000004        -0.5999999999999999      0.029333333333333222
1.1199999333333333        -0.5999999999999999      -0.029333333333333437
1.2866666000000004        -0.5999999999999999      0.08799999999999987
1.1199999333333335        -0.5999999999999999      0.02933333333333322
1.1199999333333335        -0.6                     0.08799999999999988
0.9533332666666667        -0.6                     -0.02933333333333322
0.9533332666666667        -0.6                     -0.08800000000000009
0.9533332666666667        -0.6                     0.02933333333333322
0.7866666000000004        -0.6                     0.02933333333333322
0.7866666000000004        -0.6                     -0.029333333333333437
0.7866666000000002        -0.6                     -0.08800000000000009
0.6199999333333334        -0.6                     -0.029333333333333437
0.4533332666666666        -0.6                     -0.02933333333333355
0.4533332666666666        -0.6000000000000001      -0.08800000000000009
0.6199999333333335        -0.6000000000000001      -0.08800000000000009
0.28666660000000027       -0.6000000000000001      0.08799999999999987
0.45333326666666696       -0.6                     0.02933333333333333
0.6199999333333334        -0.6                     0.029333333333333437
0.45333326666666685       -0.6000000000000001      0.08799999999999986
0.7866666000000002        -0.6                     0.08799999999999987
0.6199999333333336        -0.6000000000000002      0.08799999999999987
0.9533332666666667        -0.6                     0.08799999999999987
-1.2133334000000002       0.48500000000000004      0.6500000000000002
-1.2133334000000002       0.48500000000000004      0.5600000000000002
-1.2133334000000002       0.4750000000000001       0.6500000000000002
-1.2133334000000005       0.6000000000000001       0.5600000000000002
-1.2133334000000002       0.5425000000000001       0.5600000000000002
-1.1133334000000004       0.47500000000000003      0.7500000000000002
-1.0133334000000003       0.4750000000000001       0.5600000000000002
-1.0133334000000003       0.4750000000000001       0.7500000000000002
-1.0133334000000003       0.4750000000000001       0.5500000000000002
-1.1633334000000002       0.48000000000000004      0.7000000000000003
-1.1133334000000004       0.48500000000000004      0.7500000000000002
-1.0133334000000003       0.4850000000000001       0.7500000000000002
-1.1133334000000004       0.48500000000000004      0.5600000000000002
-1.0133334000000003       0.4850000000000001       0.5600000000000002
-1.0466667333333333       0.6                      0.22580000000000014
-1.046666733333334        0.5999999999999999       0.13548000000000007
-1.046666733333334        0.5999999999999999       0.045160000000000096
-1.046666733333333        0.5999999999999999       -0.045159999999999874
-1.046666733333333        0.5999999999999999       -0.13547999999999974
-1.046666733333333        0.5999999999999999       -0.22579999999999995
-0.8800000666666667       0.6                      0.2258000000000002
-0.880000066666667        0.6                      0.13547999999999996
-0.880000066666667        0.6                      0.045160000000000096
-0.8800000666666665       0.6                      -0.22579999999999997
-0.8800000666666665       0.6                      -0.13547999999999996
-0.880000066666667        0.6                      -0.045159999999999874
-0.7133334                0.6                      0.22580000000000017
-0.7133333999999996       0.6                      0.13548000000000018
-0.7133333999999996       0.6                      0.045160000000000096
-0.7133333999999996       0.6                      -0.22579999999999995
-0.7133333999999995       0.6                      -0.13547999999999985
-0.7133333999999995       0.6                      -0.045159999999999874
-0.5466667333333335       0.6000000000000001       0.22580000000000022
-0.5466667333333336       0.6                      0.13547999999999996
-0.546666733333333        0.6                      -0.22579999999999995
-0.5466667333333332       0.6                      -0.13547999999999985
-0.5466667333333334       0.6                      0.045160000000000096
-0.5466667333333336       0.6                      -0.045159999999999874
-0.3800000666666664       0.6000000000000001       -0.22579999999999997
-0.38000006666666647      0.6                      -0.13547999999999996
-0.38000006666666664      0.6000000000000001       0.22580000000000017
-0.21333339999999965      0.6000000000000001       -0.22579999999999995
-0.21333339999999917      0.6000000000000001       -0.13547999999999985
-0.046666733333332905     0.6000000000000001       -0.22579999999999995
-0.04666673333333283      0.6000000000000001       -0.13547999999999985
-0.38000006666666647      0.6                      0.13547999999999996
-0.38000006666666647      0.6                      -0.045159999999999874
-0.38000006666666647      0.6                      0.045160000000000096
-0.2133333999999998       0.6000000000000001       0.22580000000000017
-0.2133333999999998       0.6000000000000001       -0.045160000000000096
-0.2133333999999998       0.6000000000000001       0.13547999999999985
-0.2133333999999998       0.6000000000000001       0.045160000000000096
-0.046666733333333286     0.6000000000000001       0.22580000000000022
0.11999993333333382       0.6000000000000002       -0.22579999999999997
0.11999993333333372       0.6000000000000001       -0.13547999999999996
-0.04666673333333327      0.6000000000000001       -0.045159999999999874
0.1199999333333335        0.6000000000000001       -0.045159999999999874
0.11999993333333328       0.6000000000000001       0.045160000000000096
-0.04666673333333327      0.6000000000000001       0.045160000000000096
0.11999993333333328       0.6000000000000001       0.13547999999999996
-0.046666733333333495     0.6000000000000001       0.13548000000000018
0.1199999333333335        0.6000000000000001       0.2258000000000002
0.28666660000000027       0.6000000000000001       0.22580000000000017
0.2866666000000005        0.6000000000000001       -0.22579999999999995
0.2866666000000005        0.6000000000000001       -0.13547999999999985
0.28666660000000027       0.6000000000000001       0.045160000000000096
0.28666660000000027       0.6000000000000001       0.13547999999999985
0.28666660000000027       0.6000000000000001       -0.045159999999999874
0.453333266666667         0.6000000000000001       -0.22579999999999995
0.4533332666666672        0.6000000000000002       -0.13547999999999996
0.45333326666666696       0.6000000000000002       -0.045159999999999874
0.45333326666666696       0.6000000000000002       0.045160000000000096
0.6199999333333334        0.6000000000000002       0.045160000000000096
0.6199999333333334        0.6000000000000002       -0.045159999999999874
0.6199999333333337        0.6000000000000002       -0.2258
0.6199999333333336        0.6000000000000002       -0.1354799999999999
0.7866666000000004        0.6000000000000002       -0.22579999999999995
0.7866666000000005        0.6000000000000002       -0.1354799999999998
0.7866666000000005        0.6000000000000002       -0.045159999999999874
1.2866666000000004        0.6000000000000003       -0.22579999999999995
1.1199999333333337        0.6000000000000004       -0.22579999999999995
1.2866666000000007        0.6000000000000003       -0.1354799999999999
0.9533332666666668        0.6000000000000002       -0.045159999999999874
0.953333266666667         0.6000000000000002       -0.22579999999999995
0.9533332666666671        0.6000000000000002       -0.1354799999999999
1.1199999333333337        0.6000000000000003       -0.1354799999999998
1.2866666000000002        0.6000000000000002       -0.04515999999999993
1.1199999333333335        0.6000000000000003       -0.045159999999999874
1.1199999333333335        0.6000000000000003       0.045159999999999985
1.2866666000000002        0.6000000000000003       0.045160000000000096
1.2866666000000002        0.6000000000000002       0.1354800000000001
1.1199999333333333        0.6000000000000003       0.13547999999999974
1.2866666000000004        0.6000000000000003       0.22580000000000017