% Model:              FOC_SAT_mesh004.mph
% Version:            COMSOL 6.0.0.405
% Date:               Nov 12 2023, 17:05
% Dimension:          3
% Nodes:              5008
% Elements:           8889
% Expressions:        1
% Description:        Material settings
% Length unit:        m
% Coordinates
-1.3133333999999999       -0.4292893218813454      -0.5207106781186546
-1.3133333999999999       -0.5707106781186548      -0.37928932188134507
-1.3133333999999999       -0.3232233047033633      -0.4146446609406724
-1.3133333999999999       -0.4646446609406729      -0.27322330470336287
-1.2800000666666667       -0.5707106781186548      -0.37928932188134507
-1.2800000666666667       -0.4646446609406729      -0.27322330470336287
-1.2466667333333334       -0.570710678118655       -0.3792893218813451
-1.2466667333333334       -0.46464466094067297     -0.27322330470336287
-1.2133334000000002       -0.5707106781186546      -0.3792893218813451
-1.2133334000000002       -0.46464466094067286     -0.27322330470336303
-1.2800000666666667       -0.4292893218813454      -0.5207106781186546
-1.2466667333333334       -0.42928932188134544     -0.5207106781186546
-1.2133334000000002       -0.4292893218813454      -0.5207106781186541
-1.3133333999999999       -0.4646446609406728      0.2732233047033638
-1.3133333999999999       -0.5707106781186548      0.379289321881346
-1.3133333999999999       -0.3232233047033632      0.4146446609406731
-1.3133333999999999       -0.4292893218813454      0.5207106781186552
-1.2800000666666667       -0.4646446609406728      0.2732233047033638
-1.2800000666666667       -0.5707106781186548      0.379289321881346
-1.2466667333333334       -0.46464466094067286     0.27322330470336387
-1.2466667333333334       -0.570710678118655       0.3792893218813461
-1.2133334000000002       -0.46464466094067297     0.2732233047033639
-1.2133334000000002       -0.5707106781186545      0.379289321881346
-1.2800000666666667       -0.4292893218813454      0.5207106781186552
-1.2466667333333334       -0.42928932188134544     0.5207106781186553
-1.2133334000000002       -0.4292893218813454      0.5207106781186551
-1.2800000666666667       -0.3232233047033633      -0.4146446609406724
-1.2466667333333334       -0.3232233047033633      -0.4146446609406725
-1.2133334000000002       -0.32322330470336336     -0.4146446609406726
-1.2800000666666667       -0.3232233047033632      0.41464466094067304
-1.2466667333333334       -0.32322330470336325     0.4146446609406731
-1.2133334000000002       -0.32322330470336347     0.41464466094067315
-1.3133334                0.4292893218813412       -0.5207106781186538
-1.3133334                0.3232233047033603       -0.41464466094067043
-1.3133334                0.5707106781186523       -0.37928932188134606
-1.3133334                0.46464466094067153      -0.27322330470336265
-1.2800000666666667       0.42928932188134117      -0.5207106781186537
-1.2800000666666667       0.32322330470336025      -0.4146446609406704
-1.2466667333333337       0.4292893218813412       -0.5207106781186537
-1.2466667333333337       0.32322330470336025      -0.41464466094067043
-1.2133334000000002       0.4292893218813413       -0.5207106781186537
-1.2133334000000002       0.3232233047033605       -0.4146446609406705
-1.2800000666666667       0.4646446609406715       -0.27322330470336265
-1.2466667333333337       0.46464466094067153      -0.27322330470336265
-1.2133334000000002       0.4646446609406716       -0.27322330470336265
-1.3133333999999999       0.46464466094067236      0.27322330470336315
-1.3133333999999999       0.32322330470336275      0.41464466094067276
-1.3133334                0.5707106781186543       0.37928932188134534
-1.3133333999999999       0.42928932188134483      0.5207106781186548
-1.2800000666666667       0.32322330470336275      0.4146446609406727
-1.2800000666666667       0.42928932188134483      0.5207106781186548
-1.2466667333333334       0.32322330470336275      0.4146446609406728
-1.2466667333333334       0.4292893218813449       0.5207106781186548
-1.2133334000000002       0.32322330470336286      0.41464466094067276
-1.2133334000000002       0.42928932188134483      0.5207106781186546
-1.2800000666666667       0.46464466094067236      0.27322330470336315
-1.2466667333333334       0.46464466094067236      0.27322330470336315
-1.2133334000000002       0.46464466094067236      0.27322330470336337
-1.2800000666666667       0.5707106781186523       -0.379289321881346
-1.2466667333333337       0.5707106781186523       -0.3792893218813461
-1.2133334000000002       0.5707106781186523       -0.3792893218813461
-1.2800000666666667       0.5707106781186543       0.3792893218813453
-1.2466667333333337       0.5707106781186544       0.37928932188134534
-1.2133334000000002       0.5707106781186543       0.37928932188134534
-1.2603321348293262       0.2747481095420613       0.6858310259858579
-1.2786660118529474       0.2747487373415295       0.7175849768915531
-1.2388996432702613       0.2850000000000004       0.6982050807568884
-1.2572329766035946       0.2850000000000005       0.7299593455623179
-1.2692105324027165       0.2500000000000004       0.6807050807568883
-1.2875438657360498       0.2500000000000004       0.7124593455623177
-1.2969993451862807       0.2747487373415296       0.7493392416969825
-1.2755663099369279       0.2850000000000004       0.7617136103677472
-1.260332134829326        0.2252518904579395       0.6858310259858579
-1.2786660118529474       0.2252512626584713       0.7175849768915531
-1.2388996432702613       0.21500000000000033      0.6982050807568884
-1.2572329766035946       0.21500000000000033      0.7299593455623179
-1.3058771990693832       0.25000000000000033      0.744213610367747
-1.3153321348293259       0.2747481095420613       0.7810938204021461
-1.2938996432702612       0.2850000000000004       0.7934678751731765
-1.2969993451862807       0.22525126265847126      0.7493392416969825
-1.2755663099369279       0.2150000000000003       0.7617136103677472
-1.3242105324027165       0.2500000000000004       0.7759678751731764
-1.315332134829326        0.22525189045793947      0.781093820402146
-1.2938996432702612       0.2150000000000003       0.7934678751731765
-1.2174671517111966       0.27474810954206125      0.7105791355279188
-1.2357999413542418       0.2747487373415296       0.7423337142330824
-1.208588754137806        0.2500000000000004       0.7157050807568884
-1.2269220874711393       0.2500000000000004       0.7474593455623179
-1.2174671517111966       0.22525189045793947      0.7105791355279187
-1.2357999413542418       0.22525126265847115      0.7423337142330824
-1.254133274687575        0.2747487373415296       0.7740879790385118
-1.2452554208044726       0.2500000000000004       0.7792136103677473
-1.254133274687575        0.2252512626584712       0.7740879790385117
-1.2724671517111965       0.2747481095420613       0.8058419299442071
-1.263588754137806        0.2500000000000004       0.8109678751731766
-1.2724671517111963       0.22525189045793947      0.805841929944207
-1.2110684269189647       0.20000000000000034      0.5500000000000003
-1.234779255765804        0.20000000000000032      0.5910683602522965
-1.2110684269189644       0.30000000000000054      0.5500000000000003
-1.2347792557658037       0.3000000000000005       0.5910683602522966
-1.2584900846126437       0.20000000000000034      0.6321367205045924
-1.2584900846126432       0.3000000000000005       0.6321367205045925
-1.2822009134594832       0.20000000000000034      0.6732050807568882
-1.2822009134594832       0.3000000000000005       0.6732050807568885
-1.158023336059425        0.20000000000000034      0.5500000000000003
-1.0955983730810395       0.20000000000000034      0.5500000000000003
-1.1829037535784714       0.20000000000000034      0.5993226728609283
-1.128931706414373        0.20000000000000034      0.6077350269189634
-1.211278412725462        0.20000000000000034      0.6483819433061849
-1.162265039747706        0.20000000000000034      0.6654700538379258
-1.2426559070234098       0.20000000000000034      0.696036400867861
-1.1955983730810393       0.20000000000000034      0.7232050807568883
-1.1580233360594243       0.30000000000000043      0.5500000000000002
-1.1829037535784714       0.3000000000000005       0.5993226728609284
-1.0955983730810395       0.30000000000000054      0.5500000000000003
-1.1289317064143727       0.3000000000000005       0.6077350269189634
-1.2112784127254619       0.3000000000000005       0.648381943306185
-1.2426559070234096       0.3000000000000005       0.6960364008678612
-1.162265039747706        0.3000000000000005       0.665470053837926
-1.1955983730810393       0.3000000000000005       0.7232050807568885
-1.2633334000000003       -0.15000000000000038     -0.09499999999999967
-1.2633334000000003       -0.15000000000000044     0.09500000000000045
-1.2633334000000003       -4.2370620900733513E-16  -0.09499999999999961
-1.2633334000000003       -4.83554168928535E-16    0.09500000000000051
-1.2633334000000003       0.14999999999999952      -0.09499999999999956
-1.2633334000000003       0.14999999999999947      0.09500000000000056
-1.2466667333333337       -0.15000000000000038     -0.09499999999999967
-1.2466667333333337       -0.15000000000000044     0.09500000000000045
-1.2300000666666673       -0.1500000000000004      -0.0949999999999997
-1.2300000666666673       -0.1500000000000005      0.09500000000000047
-1.2133334000000002       -0.15000000000000038     -0.09499999999999967
-1.2133334000000002       -0.15000000000000044     0.09500000000000045
-1.2466667333333337       -4.163336342344338E-16   -0.0949999999999996
-1.2300000666666673       -3.885780586188049E-16   -0.0949999999999996
-1.2466667333333337       0.14999999999999952      -0.09499999999999956
-1.2133334000000002       -4.2370620900733513E-16  -0.09499999999999961
-1.2300000666666673       0.14999999999999958      -0.09499999999999958
-1.2133334000000002       0.14999999999999952      -0.09499999999999956
-1.2466667333333337       -4.996003610813205E-16   0.09500000000000051
-1.2466667333333337       0.14999999999999947      0.09500000000000056
-1.2300000666666673       -4.996003610813205E-16   0.09500000000000051
-1.2300000666666673       0.14999999999999952      0.09500000000000058
-1.2133334000000002       -4.83554168928535E-16    0.09500000000000051
-1.2133334000000002       0.14999999999999947      0.09500000000000056
-1.2633334000000003       -0.032500000000000286    0.21750000000000086
-1.2633334000000003       -0.0325000000000003      0.2825000000000008
-1.2633334000000003       0.03249999999999973      0.21750000000000086
-1.2633334000000003       0.03249999999999972      0.2825000000000008
-1.2466667333333337       -0.03250000000000028     0.21750000000000086
-1.2466667333333337       -0.03250000000000029     0.2825000000000008
-1.2300000666666673       -0.032500000000000286    0.21750000000000091
-1.2300000666666673       -0.032500000000000306    0.28250000000000086
-1.2133334000000002       -0.03250000000000028     0.21750000000000086
-1.2133334000000002       -0.03250000000000029     0.2825000000000008
-1.2466667333333337       0.03249999999999974      0.21750000000000086
-1.2300000666666673       0.032499999999999744     0.21750000000000091
-1.2133334000000002       0.032499999999999744     0.21750000000000086
-1.2466667333333337       0.032499999999999724     0.2825000000000008
-1.2300000666666673       0.03249999999999974      0.28250000000000086
-1.2133334000000002       0.03249999999999973      0.2825000000000008
-1.2633334000000003       -0.03250000000000032     0.36749999999999977
-1.2633334000000003       -0.03250000000000035     0.4324999999999998
-1.2633334000000003       0.0324999999999997       0.36749999999999977
-1.2633334000000003       0.032499999999999675     0.4324999999999998
-1.2466667333333337       -0.03250000000000033     0.36749999999999977
-1.2466667333333337       -0.032500000000000355    0.4324999999999997
-1.2300000666666673       -0.03250000000000034     0.3674999999999999
-1.2300000666666673       -0.03250000000000037     0.4324999999999999
-1.2133334000000002       -0.03250000000000035     0.36749999999999977
-1.2133334000000002       -0.032500000000000376    0.4324999999999998
-1.2466667333333337       0.032499999999999696     0.36749999999999977
-1.2300000666666673       0.032499999999999696     0.3674999999999999
-1.2133334000000002       0.032499999999999675     0.36749999999999977
-1.2466667333333337       0.03249999999999967      0.4324999999999997
-1.2300000666666673       0.03249999999999966      0.4324999999999999
-1.2133334000000002       0.03249999999999965      0.4324999999999998
-1.2133334000000002       -0.6000000000000003      -0.08800000000000009
-0.8883333999999998       -0.6000000000000002      -0.08800000000000009
-1.2133334000000002       -0.6000000000000003      0.08799999999999987
-0.8883333999999998       -0.6000000000000002      0.08799999999999987
-1.2133334                -0.5750000000000001      -0.371496991194732
-1.2133334                -0.575                   -0.3124532872774821
-1.2133334000000002       -0.5029179020754928      -0.22917562028510716
-1.2133333999999998       -0.5750000000000001      -0.24278771919649966
-1.2133333999999998       -0.4994043887837708      -0.5250000000000001
-1.2133334                -0.5750000000000001      -0.5250000000000001
-1.2133334                -0.40670388157989057     -0.525
-1.2133334000000002       -0.33653927930304867     -0.4786496693514285
-1.2133334                -0.3000000000000001      -0.43900000000000006
-1.2133334                -0.3000000000000001      -0.5250000000000001
-1.2133334                -0.3000000000000002      -0.26700000000000007
-1.2133334000000002       -0.3914698980243635      -0.1834848397035193
-1.2133334000000002       -0.3516115555731759      -0.156517388231402
-1.2133334                -0.3000000000000002      -0.18100000000000002
-1.2133334000000002       -0.45244316887451674     -0.06607962387807421
-1.2133334000000002       -0.5750000000000003      -0.13431738404637808
-1.2133334000000002       -0.358881966332991       -0.06637762540643743
-1.2133334000000002       -0.4649237273136856      0.036281148518540654
-1.2133334000000002       -0.5750000000000002      0.007145768650101053
-1.2133334                -0.3000000000000002      -0.095
-1.2133334                -0.5750000000000004      0.4462791449387047
-1.2133334                -0.5750000000000003      0.5249999999999999
-1.2133334000000002       -0.5445537565320612      0.4392582337326719
-1.2133333999999998       -0.5088652340457107      0.5249999999999999
-1.2133334000000002       -0.4652826399780881      0.5088970756406913
-1.2133334                -0.46566439571633483     0.5249999999999998
-1.2133334                -0.30000000000000016     0.019699149563460264
-1.2133334                -0.5750000000000003      0.37725826080160396
-1.2133334000000002       -0.46132816059286347     0.09800394432747007
-1.2133334000000002       -0.5750000000000002      0.14611911955815313
-1.2133334                -0.3000000000000002      0.095
-1.2133334                -0.4365231566869913      0.5249999999999999
-1.2133334                -0.5750000000000003      0.318097136388288
-1.2133334000000002       -0.4664261955020338      0.2171409396117767
-1.2133333999999998       -0.5750000000000002      0.2503808390337884
-1.2133334000000002       -0.35482313329933785     0.21351442639895604
-1.2133334                -0.3000000000000003      0.31786621549559113
-1.2133333999999998       -0.30000000000000027     0.3878736901254386
-1.2133334000000002       -0.3132148926025769      0.44702707266318137
-1.2133334                -0.36461128909886803     0.5249999999999999
-1.2133334000000002       -0.3000000000000003      0.45208328058962644
-1.2133334                -0.3000000000000003      0.5249999999999999
-1.2133334000000002       -0.15000000000000005     -0.5250000000000002
-1.2133334000000002       -0.1500000000000001      -0.439
-1.2133334                -0.30000000000000016     -0.3530000000000001
-1.2133334000000002       -0.15000000000000016     -0.353
-1.2133334                0.14999999999999997      -0.525
-1.2133334000000002       0.14999999999999988      -0.4389999999999998
-1.2133334                0.2999999999999999       -0.5249999999999999
-1.2133334                0.2999999999999999       -0.43899999999999995
-1.2133334000000002       -0.15000000000000022     -0.2669999999999999
-1.2133334000000002       -0.15000000000000033     -0.18099999999999974
-1.2133334                -7.37257477290143E-17    -0.525
-1.2133334000000002       -1.8004262153770421E-16  -0.43899999999999995
-1.2133334000000002       -2.5226262928957065E-16  -0.3529999999999999
-1.2133334000000002       0.14999999999999977      -0.35299999999999987
-1.2133334                0.2999999999999998       -0.353
-1.2133334000000002       -2.6203259190627204E-16  -0.26699999999999985
-1.2133334000000002       -3.411914935620458E-16   -0.1809999999999997
-1.2133334000000002       0.14999999999999974      -0.2669999999999996
-1.2133334                0.2999999999999998       -0.26699999999999985
-1.2133334000000002       0.14999999999999972      -0.18099999999999966
-1.2133334                0.29999999999999977      -0.1809999999999999
-1.2133334                0.29999999999999977      -0.09499999999999989
-1.2133334000000002       -0.139992427264949       0.21750000000000005
-1.2133334000000002       -0.08325610670747678     0.15539172659895553
-1.2133334                -0.21216032461611126     0.21750000000000005
-1.2133334                -0.30000000000000027     0.2175
-1.2133334000000002       -0.018932595401413402    0.1442375090497814
-1.2133334                0.09869909270895891      0.21750000000000005
-1.2133333999999998       0.1799862046058214       0.21750000000000005
-1.2133334                0.2999999999999997       0.2175000000000001
-1.2133334                0.29999999999999977      0.09500000000000011
-1.2133334000000002       -0.1518665346163119      0.28883414069675645
-1.2133334                -0.08249461401637677     0.21750000000000003
-1.2133334000000002       -0.09001361210766456     0.2866599867217498
-1.2133334000000002       -0.21702319273005297     0.296199861833647
-1.2133334000000002       -0.15393739910245424     0.3628796799622149
-1.2133334000000002       -0.09150772193470119     0.36073842280942897
-1.2133334000000002       -0.2140573937315311      0.372309690951804
-1.2133334000000002       -0.15001906636787513     0.40005567342809
-1.2133334000000002       -0.10784334415331226     0.41906930447400953
-1.2133334000000002       -0.195130733415964       0.4331754571067825
-1.2133334                -0.22575506568106615     0.5250000000000002
-1.2133334000000002       -0.1284547937704106      0.46430335556677105
-1.2133334000000002       -0.1411230318545067      0.5250000000000002
-1.2133334000000002       -0.04287798108388251     0.4707321861699329
-1.2133334000000002       0.1119428688235203       0.30725200461194635
-1.2133334000000002       0.01280641239735748      0.4687156172059908
-1.2133334                -0.04597243848700458     0.5250000000000001
-1.2133334000000002       0.19053639191346014      0.32034936665259595
-1.2133334                0.29999999999999977      0.34364267823391603
-1.2133334000000002       0.1018197858076961       0.37814989231110896
-1.2133334000000002       0.07341637537296584      0.446315924165662
-1.2133334000000002       0.04989633253090587      0.5250000000000002
-1.2133334000000002       0.1971860063078279       0.4235209526424485
-1.2133333999999998       0.29999999999999966      0.43988858011595083
-1.2133334000000002       0.13403076768781438      0.4715302148788035
-1.2133333999999998       0.14112309565114523      0.5250000000000001
-1.2133333999999998       0.2257550656810652       0.5250000000000001
-1.2133334                0.29999999999999966      0.5250000000000001
-1.2133333999999998       0.29999999999999977      0.019699149563460715
-1.2133334000000002       0.3700714283750226       -0.5049130267533851
-1.2133334000000002       0.3647621058084674       -0.525
-1.2133333999999998       0.40670388157988924      -0.5249999999999999
-1.2133334                0.499404388783769        -0.5249999999999999
-1.2133333999999998       0.5749999999999998       -0.3826095304022704
-1.2133334000000002       0.37600290238575784      -0.22846822160036645
-1.2133334000000002       0.3713208372492468       -0.13366022732352636
-1.2133334000000002       0.3437569078636367       -0.09003612426896028
-1.2133334000000002       0.37280708765066656      -0.023452707190337617
-1.2133334000000002       0.48655676546406507      -0.04691873725143045
-1.2133334                0.5749999999999997       -0.18211874093091315
-1.2133334000000002       0.5749999999999998       -0.06264431073354806
-1.2133333999999998       0.2999999999999997       -0.039845781704142595
-1.2133334000000002       0.3499327421227588       0.026314633576719215
-1.2133334000000002       0.5457139761539462       0.07589227149056837
-1.2133334                0.5749999999999997       0.07488270986131167
-1.2133334000000002       0.39068263990458835      0.09911081281878584
-1.2133334000000002       0.5730661300296596       0.4523295909981795
-1.2133333999999998       0.5088652340457097       0.5250000000000001
-1.2133333999999998       0.5749999999999996       0.452543863723433
-1.2133334                0.5749999999999996       0.5250000000000001
-1.2133334000000002       0.5713407691956601       0.38842146307389347
-1.2133333999999998       0.5749999999999996       0.38817518866767875
-1.2133334000000002       0.4980784165471483       0.15276012051406915
-1.2133334                0.5749999999999997       0.1919842077826758
-1.2133333999999998       0.5749999999999996       0.33227173400943355
-1.2133334000000002       0.46566439571633417      0.5250000000000001
-1.2133334000000002       0.40355451501305745      0.24405346804135286
-1.2133334000000002       0.5122071303025723       0.26921720753736583
-1.2133334000000002       0.30978923078917847      0.34507245040463863
-1.2133334000000002       0.37100630697972814      0.5012989649992948
-1.2133334000000002       0.40735700452924223      0.5250000000000002
-1.2133334                0.3646112890988672       0.5250000000000001
-1.2133334000000005       0.5818607129569688       0.5500000000000002
-1.2133334                0.5310463546945171       0.5600000000000002
-1.2133334000000005       0.6000000000000001       0.5500000000000002
-1.2133334000000005       0.6000000000000001       0.5600000000000002
-1.2133334000000002       0.4750000000000001       0.6096270106619109
-1.2133334000000002       0.4750000000000001       0.6500000000000002
-1.2133334000000002       0.48500000000000004      0.5989845739835712
-1.2133334000000002       0.48500000000000004      0.6500000000000002
-1.2133334000000007       0.497711067697745        0.5500000000000002
-1.2133334000000002       0.48500000000000004      0.5600000000000002
-1.2133334000000005       0.5253123580224609       0.5500000000000002
-1.2133334000000002       0.47500000000000014      0.5775875051142065
-1.0133334000000003       0.47500000000000003      0.7093415441874941
-1.0133334000000003       0.4750000000000001       0.7500000000000002
-1.0561575526329563       0.4750000000000001       0.6938675289307655
-1.0555593699376846       0.4750000000000001       0.7500000000000002
-1.0133334                0.4750000000000001       0.6672711466541561
-1.0524466558544499       0.47500000000000014      0.6482700697028271
-1.1142650529411675       0.4750000000000001       0.6560050476713596
-1.1133334000000004       0.47500000000000003      0.7500000000000002
-1.1633334000000004       0.4750000000000002       0.7000000000000004
-1.1631724390452105       0.4750000000000001       0.6625073473334877
-1.0133334000000003       0.4750000000000001       0.625208446618299
-1.040791204830745        0.47500000000000014      0.6124784378536471
-1.0832549016240605       0.4750000000000001       0.6223852788872196
-1.0301221634936641       0.47500000000000014      0.5894025475850551
-1.0133334000000003       0.47500000000000003      0.5870646750526879
-1.1512373066035237       0.4750000000000001       0.6034707371788325
-1.0586845772217892       0.4750000000000001       0.5913416915302679
-1.1167205045971529       0.4750000000000001       0.5942068232231142
-1.0382218141724466       0.47500000000000014      0.5747024295788115
-1.0133334000000003       0.4750000000000001       0.5600000000000002
-1.1348836897847179       0.4750000000000001       0.5717980456713962
-1.1671165240554857       0.4750000000000001       0.5767695255412882
-1.1251371402755173       0.47500000000000014      0.5500000000000002
-1.0802466547555123       0.47500000000000014      0.5500000000000002
-1.0406794613010075       0.47500000000000026      0.5500000000000003
-1.0133334000000003       0.4750000000000001       0.5500000000000002
-1.17004690603371         0.47500000000000003      0.55
-1.2133334000000002       0.4750000000000001       0.5500000000000002
-1.1640401034665502       0.48500000000000004      0.6992932965334503
-1.1133334000000004       0.48500000000000004      0.7500000000000002
-1.0133334                0.4850000000000001       0.709341544187494
-1.0133334                0.48500000000000004      0.667271146654156
-1.0413702792873594       0.4850000000000001       0.7187824215884691
-1.0524723888150576       0.4850000000000001       0.695232916151325
-1.0555593699376846       0.4850000000000001       0.7500000000000002
-1.0133334000000003       0.4850000000000001       0.7500000000000002
-1.0133334                0.48500000000000004      0.6252084466182991
-1.057695878393209        0.48500000000000004      0.656497642088841
-1.0370044014444038       0.4850000000000001       0.581739174871793
-1.0566765640957612       0.48500000000000004      0.600355489451542
-1.0133334                0.4850000000000001       0.5870646750526878
-1.107740375058525        0.48500000000000004      0.6347585851553003
-1.1543165818371703       0.48500000000000004      0.6251480722822187
-1.0802466547555123       0.4850000000000001       0.5600000000000002
-1.1251371402755173       0.4850000000000001       0.5600000000000003
-1.0406794613010075       0.4850000000000002       0.5600000000000003
-1.0133334000000003       0.4850000000000001       0.5600000000000002
-1.17004690603371         0.485                    0.5600000000000002
-1.2133334000000002       0.5999999999999999       -0.22579999999999995
-1.2133334000000002       0.5999999999999999       9.280770596475918E-17
-1.0508334                0.5999999999999999       -0.22579999999999997
-1.0508334                0.5999999999999999       1.1102230246251568E-16
-0.8883333999999998       0.6                      -0.22579999999999995
-0.8883333999999997       0.5999999999999998       1.1015494072452725E-16
-1.0508334                0.5999999999999999       0.22580000000000017
-0.8883333999999998       0.6                      0.22580000000000017
-1.2133334000000002       0.5999999999999999       0.22580000000000017
-1.1817222035089008       -0.16888317318295196     0.5500000000000002
-1.1817222035089008       -0.16888317318295196     0.5727000000000001
-1.1817222035089008       -8.831731829518213E-4    0.5500000000000002
-1.1817222035089008       -8.831731829518482E-4    0.5727000000000002
-1.1817222035089008       0.1671168268170483       0.5500000000000002
-1.1817222035089008       0.1671168268170483       0.5727000000000001
-0.9337222035089008       -0.16888317318295196     0.5500000000000002
-0.9337222035089008       -0.16888317318295196     0.5727000000000001
-0.9337222035089008       -8.831731829518213E-4    0.5727000000000002
-0.9337222035089008       0.1671168268170483       0.5727000000000001
-0.9337222035089008       0.1671168268170483       0.5500000000000002
-1.1633334                0.34999999999999953      0.6700000000000002
-1.1633334                0.34999999999999953      0.7300000000000001
-1.1633334                0.4499999999999996       0.6700000000000002
-1.1633334                0.4499999999999996       0.7300000000000001
-1.1633333999999997       0.3499999999999995       0.61
-1.1633333999999997       0.4499999999999995       0.61
-1.1633334                0.34999999999999953      0.5500000000000002
-1.1633334                0.4499999999999996       0.5500000000000002
-1.0133333999999998       0.3499999999999996       0.6700000000000002
-1.0133333999999998       0.3499999999999996       0.7300000000000001
-1.0133333999999996       0.34999999999999953      0.61
-1.0133333999999998       0.3499999999999996       0.5500000000000002
-1.0133333999999998       0.4499999999999996       0.7300000000000001
-1.0133333999999998       0.4499999999999996       0.6700000000000002
-1.0133333999999996       0.4499999999999995       0.61
-1.0133333999999998       0.4499999999999996       0.5500000000000002
0.42166660000000017       -0.44999999999999996     -0.5500000000000003
0.42166660000000034       1.8113711751615163E-16   -0.5500000000000002
1.1916666000000002        -0.4499999999999998      -0.5500000000000003
1.1916666000000002        3.3133218391157016E-16   -0.5500000000000002
0.42166659999999984       0.45000000000000034      -0.5500000000000002
1.1916666000000002        0.45000000000000046      -0.55
-1.1183334000000003       -0.45000000000000023     -0.5500000000000003
-1.1183334000000003       -7.632783294297951E-17   -0.5500000000000002
-0.34833339999999985      -0.4500000000000001      -0.5500000000000004
-0.34833339999999985      4.589325832427362E-17    -0.5500000000000002
-1.1183334000000003       0.45                     -0.55
-0.3483334000000001       0.4500000000000002       -0.55
-1.0633334                -0.4500000000000001      0.6350000000000001