% Model:              Lageos002.mph
% Version:            COMSOL 6.0.0.405
% Date:               Oct 27 2022, 16:02
% Dimension:          3
% Nodes:              32420
% Elements:           47166
% Expressions:        1
% Description:        Material settings
% Length unit:        m
% Coordinates
-0.2866932386701525       -3.22427187852223E-19    0.08835715534589661
-0.28696463907179204      -5.36125401381917E-4     0.0874716864042067
-0.2861139234490873       -0.0018788406850600466   0.09021542444931355
-0.287783025391938        -5.36125401382398E-4     0.084740369932301
-0.22412998369349518      -0.0019008607079350568   0.19941351611551705
-0.2128533952556081       0                        0.21140821017414124
-0.231057195834944        -2.82459257624917E-18    0.191344119985152
-0.23059624212073793      -0.0014741086494794997   0.19189938280201427
-0.231646791404995        -5.36125401383699E-4     0.190629913790493
-0.2300357243182491       -0.0028439550157503216   0.19257093637768527
-0.190005711995358        -5.36125401380436E-4     0.232159060579459
-0.1922036134804345       -5.36125401380383E-4     0.2303427250100675
-0.18991759487503515      -9.286743094717911E-4    0.2322311502724861
-0.192913786405588        -1.089869100272362E-18   0.229748277500962
-0.19436517064260714      -0.0013865984503185682   0.22852172859723907
-0.141062819630177        -5.361254013823909E-4    0.26476646486665195
-0.1401180633794489       -0.0019012462481466496   0.26526765410579695
-0.140244789472561        -1.734723475976805E-18   0.26520067689543503
-0.14357283854563238      -5.361254013823989E-4    0.2634138189844065
-0.14438533665314         1.734723475976805E-18    0.262969341482157
-0.14238520789376116      -0.004276942611645109    0.2640576690290407
-0.20733594136306704      -0.0019151292084151166   0.21682206395819323
-0.1892881106223635       -1.734723475976805E-18   0.23274451911273
-0.2909747641346224       -0.0014716396114204666   0.07303209319744872
-0.2880432552575325       0                        0.0838515539548558
-0.2944332386191656       0                        0.05752449214989627
-0.2657213291964625       -5.361254013833119E-4    0.1392557905800156
-0.26523964727509813      -0.0051047020836683405   0.1401710723130187
-0.26438581452995047      -5.36125401383363E-4     0.1417749663210492
-0.26614995821341253      1.089869100272362E-18    0.1384348212806256
-0.26394688258995597      0                        0.142590473633564
-0.28325733914284384      -0.0015135361891287554   0.0988194303855063
-0.27755331480179224      0                        0.11386025049775396
-0.27356108396138484      -0.0024049667548545588   0.12314354770702421
-0.2797036378765173       -0.0023088558165057435   0.10847061795086295
-0.02900331230430985      -5.361254013822109E-4    0.298594721780842
-0.027815804821926245     -0.0017387059366235722   0.2987076848728678
-0.028081385235162848     -1.734723475976805E-18   0.2986828347985105
-0.02077697202406393      -0.002861047300453199    0.29927966424986385
-0.0318399025755076       -5.36125401382548E-4     0.298305582589368
-0.019680861702123003     -0.00405141036031813     0.2993537433917637
-0.012247150338804472     -0.003209771364902899    0.29974990793756506
0                         0                        0.3
-0.139255790580015        -5.36125401383408E-4     -0.265721329196463
-0.13948751362244044      -0.002270029781505775    -0.2655997619415904
-0.1417749663210474       -5.36125401383928E-4     -0.2643858145299515
-0.13843482128062481      0                        -0.26614995821341303
-0.18595128146339626      -0.0018071657336444173   -0.23541903262506364
-0.1876981160597225       0                        -0.234028667533768
-0.1658204232725464       0                        -0.25000717275027845
-0.1884196892912835       -5.36125401382096E-4     -0.2334481113382075
-0.0838515539548548       -1.734723475976805E-18   -0.2880432552575325
-0.08109312972190341      -0.002315441522490214    -0.2888319655299713
-0.0847403699323          -5.36125401382397E-4     -0.287783025391938
-0.0800341009688803       -0.0014245920616914928   -0.2891272084776925
-0.07195721794692794      -0.0014881658692075788   -0.2912424398767087
-0.05752449214989524      0                        -0.29443323861916587
-0.04024414181010472      -0.0014672356487440853   -0.2972884273730953
-0.03072832112954905      2.2490111419340648E-18   -0.298422134367676
-0.2914512811176591       -0.0010058725046577805   -0.0711066152680272
-0.29403451295223976      0                        -0.05952902144175697
-0.2874653213913015       0                        -0.08581193971351321
-0.289804932390779        -0.0011550680226123846   -0.07754418844746541
-0.28885300684322907      -0.0012662453851129997   0.08101814881633289
-0.2855284070493659       -0.002972964895010668    0.09205177221461637
-0.29094796416595925      -0.0024446212277020865   0.07313878688960938
-0.29549971656088453      -0.0022192346442514582   0.05176791972290285
-0.298422134367676        -1.734723475976805E-18   0.03072832112955015
-0.29864134879710746      -0.0020498917467251503   0.02851920035071804
-0.2985155734657305       -5.36125401383368E-4     0.02980691863353275
-0.29878538131218         -5.361254013833159E-4    0.0269684243910381
-0.29963831914245703      -0.0032399779933176423   -0.014726768195468688
-0.3                      0                        3.6739403974420595E-17
-0.2986828347985105       -1.734723475976805E-18   -0.02808138523516405
-0.26520067689543453      -1.08986910027236E-18    -0.140244789472562
-0.26476646486665045      -5.36125401383543E-4     -0.1410628196301796
-0.272092208345902        -0.0020125125026615853   -0.1263559660540422
-0.27677118627171243      0                        -0.11574847580259136
-0.2881534062766139       -0.0013909612758590695   -0.08347223760739068
-0.287199042391765        -5.361254013833659E-4    -0.086698962215549
-0.2319611976956139       -0.0017450255892472802   -0.19024721486428212
-0.232159060579456        -5.36125401382983E-4     -0.190005711995362
-0.2303427250100695       -5.361254013826909E-4    -0.1922036134804325
-0.232744519112729        -2.379577851681255E-18   -0.1892881106223645
-0.23674632258240383      -0.0017536425096377466   -0.18425845636960164
-0.24887169811783247      0                        -0.1675197811508256
-0.22425296294992905      -0.0014566953911086863   -0.19927520821260666
-0.2297482775009615       -1.089869100272362E-18   -0.192913786405589
-0.21140821017414066      0                        -0.21285339525560867
-0.2983055825893675       -5.36125401382398E-4     -0.03183990257550905
-0.29844687897012123      -0.0033777261645866145   -0.030487053530864425
-0.298594721780842        -5.361254013817729E-4    -0.0290033123043103
-0.29820586848694897      2.2490111419340648E-18   -0.0327606471234093
-0.29177350576738964      -0.0021448392515521636   -0.06977264028404712
-0.2959937462987237       -0.001768751775211231    -0.04886411927014316
-0.29396745823779147      -0.0019584837629306896   -0.05985928079431222
-0.23133766543112963      -0.005304671235094198    0.19100493332077767
-0.2334481113382055       -5.361254013834059E-4    0.188419689291286
-0.2340286675337675       -1.089869100272362E-18   0.1876981160597235
-0.25000717275027784      0                        0.16582042327254726
-0.14999980468551097      -0.009999999999999998    0.25980730005516395
-0.16751978115082442      0                        0.24887169811783322
-0.0327606471234081       0                        0.29820586848694897
-0.03746056037305346      -0.0024826686112566637   0.29765198876630544
-0.059529021441755696     0                        0.29403451295224
-0.19014121039382184      -0.0034936160848187316   0.23204809869932647
-0.08804747448264004      -0.0018225885049860495   0.2867884973935127
-0.0866989622155458       -5.361254013820669E-4    0.2871990423917655
-0.0894246399421006       -5.36125401381926E-4     0.2863620676193435
-0.0858119397135121       -1.734723475976805E-18   0.287465321391302
-0.0903082393853415       -3.22427187852222E-19    0.28608464114509846
-0.10813521486719264      -0.0047906931662022615   0.27983347781426376
-0.11574847580259046      0                        0.2767711862717128
-0.13297778757373235      -0.003494813670999004    0.26891803214361676
-0.1746342492993396       -0.003373404021204683    0.24393211959817038
-0.259807300055164        -0.01                    0.149999804685511
-0.2923268708661049       -0.005150748787698492    0.06741661938744503
-0.2774495500289713       -0.0046570397229563      0.11411287039033476
0                         -0.01                    0.3
-0.01265877634794225      -0.003189816864931393    -0.2997328066484761
-0.02604591843509285      3.2242718785222252E-19   -0.2988672115386235
3.6739403974420595E-17    0                        -0.3
-0.14999980468551088      -0.01                    -0.25980730005516406
-0.142590473633563        -1.08986910027236E-18    -0.26394688258995647
-0.12743360932348155      -0.0035490595336475535   -0.27158916623236334
-0.11386025049775308      0                        -0.2775533148017925
-0.1906299137904945       -5.36125401381923E-4     -0.2316467914049935
-0.1902731825996308       -0.004684140257471691    -0.23193989735146375
-0.1913441199851515       -2.82459257624917E-18    -0.2310571958349445
-0.09368410569244366      -0.004813524037268149    -0.284996997072964
-0.08835715534589561      -3.22427187852223E-19    -0.286693238670153
-0.0874716864042059       -5.36125401381775E-4     -0.28696463907179254
-0.05698365876141365      -0.0037007957618561812   -0.29453838906696483
-0.024543929429737026     -0.002759267459725573    -0.29899430684905703
-0.0269684243910369       -5.36125401383257E-4     -0.29878538131218
-0.0298069186335308       -5.361254013838409E-4    -0.2985155734657305
-0.03594438057826048      -0.003585508275207953    -0.29783888514571966
-0.29927841524300636      -0.004602019201834004    0.020794955389100412
-0.2988672115386235       1.734723475976805E-18    0.026045918435094
-0.259807300055164        -0.009999999999999998    -0.149999804685511
-0.2629693414821565       1.089869100272362E-18    -0.144385336653141
-0.2634138189844065       -5.36125401383168E-4     -0.1435728385456322
-0.3                      -0.01                    1.043873518940484E-16
-0.2737167099498216       -0.006037537507984752    -0.12279724220944548
-0.2854460019565575       -0.002420184447735778    -0.09230698763916505
-0.28608464114509846      1.734723475976805E-18    -0.09030823938534249
-0.2863620676193435       -5.361254013825459E-4    -0.0894246399421006
-0.23500251005844025      -0.0041237118907271565   -0.18647739880809333
-0.20520548378647663      -0.002399084151711287    -0.21883946039039232
-0.2936922111154353       -0.003920344024959362    -0.061195466581492455
3.6739403974420595E-17    -0.01                    -0.3
0.07326599778545799       -0.0012532389514831755   0.29091595619439864
0.0838515539548568        1.734723475976805E-18    0.288043255257532
0.05752449214989718       0                        0.2944332386191655
0.08019292789284352       -0.0012272103671170601   0.28908319618402795
0.0847403699323036        -5.36125401383314E-4     0.287783025391937
0.014073400586463463      -0.0024882056492491      0.2996697171819884
0.026045918435095048      -1.734723475976805E-18   0.2988672115386235
0.07305517180099176       -0.002006148308308222    0.29096897063626487
0.08592985403299323       -0.0022041024912121676   0.28743009617273635
0.0874716864042044        -5.361254013839349E-4    0.28696463907179304
0.05045432256582296       -0.0017466866506449987   0.29572683566836455
0.04946658301092387       -0.0032948071551106217   0.29589365854175276
0.0298069186335347        -5.36125401382835E-4     0.29851557346573
0.029361022188200362      -0.0027198011183958244   0.29855976014202584
0.0307283211295512        -1.734723475976805E-18   0.298422134367676
0.026968424391037797      -5.361254013825469E-4    0.29878538131218
0.022674496264277286      -0.0017356909328673127   0.2991418847623336
0.01652758551990676       -0.004123919022769417    0.29954438555393115
0.043325138037521464      -0.0017007410279671741   0.29685506971252773
0.11872542487931077       -0.0021189748748145464   0.2755073020579076
0.1384348212806266        -6.44854375704445E-19    0.26614995821341203
0.11386025049775493       0                        0.2775533148017918
0.1392557905800132        -5.361254013812449E-4    0.2657213291964635
0.13917866866902215       -0.00225327332106625     0.26576173198472075
0.1417749663210522        -5.36125401381923E-4     0.26438581452994847
0.22483710956856354       -0.0018092771806261666   0.19861589604272298
0.229748277500963         1.089869100272362E-18    0.1929137864055875
0.21796317739901683       -0.0017536894831157567   0.2061360067967863
0.22494422473667203       -0.0024553021902061446   0.1984945736225995
0.22814564798295556       -0.001599030324298768    0.19480647655156977
0.21140821017414196       0                        0.21285339525560734
0.21348088645436675       -0.00274528153072222     0.21077455045298465
0.20260614902457577       -0.0023281539985647547   0.22124816016733653
0.191344119985153         0                        0.2310571958349435
0.1884196892912845        -5.36125401381779E-4     0.2334481113382065
0.187698116059724         0                        0.2340286675337665
0.1877527862157027        -0.0018951899711812728   0.2339848099091918
0.190629913790495         -5.36125401382689E-4     0.231646791404993
0.17934880544302065       -0.0022514273331292996   0.24048701833188735
0.16582042327254806       0                        0.2500071727502774
0.16436776145319715       -0.0033889949786318234   0.25096461701774786
0.14259047363356478       -1.734723475976805E-18   0.26394688258995547
0.19294174477311915       -0.0026226087729050787   0.22972479866985313
0.23390988703062598       -0.002341381249188465    0.18784611986761876
0.2387903153872167        -0.0014255098953446215   0.18160172157023616
0.2327445191127305        -1.08986910027236E-18    0.1892881106223625
0.232159060579456         -5.361254013838499E-4    0.190005711995362
0.24060847324022794       -0.0022229676708620865   0.17918583260125925
0.0913780505048473        -0.003936690297086799    0.2857447320353143
0.08835715534589761       -1.0285753319145139E-18  0.2866932386701525
0.028682520029936084      -0.006095225743331758    0.29862570727372467
0.13024948185167556       -0.004539209202171386    0.2702500184595184
0.0280813852351651        -1.734723475976805E-18   -0.2986828347985105
0.02900331230431335       -5.36125401382929E-4     -0.298594721780842
0.02024582707196015       -0.002557293169015285    -0.2993160645307436
0.07765090230232721       -0.0012101050638571396   -0.2897763575097776
0.059529021441757854      0                        -0.29403451295223954
0.08581193971351411       -1.734723475976805E-18   -0.2874653213913015
0.0866989622155486        -5.361254013825369E-4    -0.287199042391765
0.1122158415871901        -0.0021088871411063023   -0.27822222214783393
0.10446536426209545       -0.0013831617878965526   -0.2812240879967214
0.11574847580259234       0                        -0.27677118627171204
0.0903082393853434        1.412296288124584E-18    -0.28608464114509796
0.1922036134804335        -5.36125401382397E-4     -0.2303427250100685
0.19291378640559          1.734723475976805E-18    -0.2297482775009605
0.19174639103847946       -0.0013832940178876395   -0.23072347414972433
0.1900057119953625        -5.36125401382441E-4     -0.2321590605794555
0.19030672857839004       -0.0014100352623313897   -0.2319123736625344
0.189288110622365         -1.734723475976805E-18   -0.2327445191127285
0.18612192388645796       -0.0013504023753718123   -0.23528414619094834
0.16751978115082633       0                        -0.24887169811783194
0.11158993519811501       -0.0049787879074444435   -0.2784738522060563
0.0327606471234103        5.14287665957257E-19     -0.29820586848694897
0.03383429685869982       -0.0024358430879823246   -0.2980859613535622
0.031839902575508755      -5.36125401383167E-4     -0.298305582589368
0.0629118087165404        -0.0034213576440948997   -0.2933293444645684
0.09085304000467596       -0.0019456858769319723   -0.2859120933467291
0.08942463994210201       -5.361254013822509E-4    -0.2863620676193435
0.231646791404993         -5.36125401380771E-4     -0.190629913790495
0.2316745715619713        -0.0011846139008261907   -0.19059615130315993
0.2310571958349455        -1.734723475976805E-18   -0.1913441199851505
0.22534001614873236       -0.0019050778731662856   -0.19804513910240015
0.23344811133821          -5.361254013806259E-4    -0.1884196892912805
0.20062707616496436       -0.0013183311351451354   -0.223044337093542
0.21285339525560978       0                        -0.21140821017413958
0.20348706969628974       -0.002105678517875397    -0.22043822823280293
0.2657213291964645        -5.361254013817729E-4    -0.1392557905800114
0.26505747337514046       -0.003192737160170196    -0.1405152511579676
0.26438581452994997       -5.361254013817629E-4    -0.1417749663210498
0.24887169811783375       0                        0.16751978115082367
0.14999980468551097       -0.01                    0.259807300055164
0.22859555283108984       -0.0040994101414539245   0.19427833956941368
0.2303427250100715        -5.36125401383404E-4     0.19220361348043
0.20648368263880357       -0.005402841001172808    0.21763384112751824
0.18083653674154013       -0.008160956785483517    0.23937031348796284
0.2428195735328219        -0.003705923750150388    0.1761779064166063
0.2909364208536049        -0.0014099026441915727   0.07318469116484734
0.29403451295224026       0                        0.05952902144175472
0.2874653213913025        -1.08986910027236E-18    0.0858119397135111
0.29334103556946495       -0.0021109598523704285   0.06285727365256845
0.2983055825893675        -5.36125401381778E-4     0.0318399025755079
0.2983851528373172        -0.0027004211681359025   0.031085375440081896
0.2985947217808425        -5.361254013820669E-4    0.0290033123043086
0.29820586848694897       -1.734723475976805E-18   0.0327606471234071
0.2912575556398048        -0.002922809858076438    0.07189601020033017
0.287199042391766         -5.36125401381775E-4     0.0866989622155443
0.286362067619344         -5.361254013822509E-4    0.08942463994209911
0.2871515324288292        -0.0018472761075665565   0.08685618817202981
0.2652006768954355        0                        0.1402447894725602
0.26476646486665145       -5.36125401383694E-4     0.1410628196301782
0.26887083140625717       -0.0027729626618999345   0.1330731979735515
0.27677118627171315       0                        0.11574847580258954
0.28210533072898164       -0.0014953465730131246   0.1020616596685155
0.28608464114509896       -1.734723475976805E-18   0.0903082393853405
0.2841683910745799        -0.002045338870949898    0.09616821467659988
0.2888270000735799        -0.00130361807377208     0.08111081326491715
0.2813748669779083        -0.002192691514681353    0.1040585615562909
0.28986055366358693       -0.0019085905653541037   0.07733601638201214
0.13076929276827137       -0.007155959344394112    -0.26999887419929386
0.140244789472563         -1.08986910027236E-18    -0.26520067689543453
0.1410628196301792        -5.361254013826949E-4    -0.26476646486665095
0.14999980468551102       -0.010000000000000004    -0.25980730005516406
0.144385336653142         0                        -0.262969341482156
0.1435728385456344        -5.361254013822549E-4    -0.2634138189844055
0.19125209353778225       -0.003080409175936015    -0.23113337430456768
0.2047512963077356        -0.003746734736881659    -0.21926446739109795
0.1774074546404891        -0.003265684063707118    -0.2419227046764788
0.298422134367676         5.14287665957258E-19     -0.03072832112955225
0.2985155734657305        -5.361254013838449E-4    -0.029806918633533998
0.29777877441435935       -0.001746066456227307    -0.036439010802738106
0.2913402596673902        -0.0018115109208889368   -0.07156013622777448
0.29205651802713384       -0.0028207001411978284   -0.06857835137903523
0.2903507910180056        -0.002508618683335239    -0.07547461927839329
0.2893216299960464        -0.001900203051684625    -0.07932839602835044
0.288043255257533         0                        -0.0838515539548538
0.2881757283781306        -0.0018267986701025613   -0.08339514118780475
0.28848552677458694       -0.003482838040813936    -0.08231707503057349
0.2876907755462013        -0.0021072665747828376   -0.08505302855057655
0.2877830253919385        -5.3612540138225E-4      -0.0847403699322988
0.2869448319749549        -0.0019819334388203064   -0.0875366403448573
0.28696463907179304       -5.361254013817769E-4    -0.0874716864042049
0.286176588069494         -0.0017113929456163638   -0.09001644539140145
0.28581892922254276       -0.0028336001717686674   -0.09114570586746856
0.26614995821341353       -2.82459257624917E-18    -0.138434821280624
0.2648057033599314        -0.006001226239374881    -0.14098914663211493
0.263946882589957         0                        -0.14259047363356198
0.2694655897860889        -0.0027890723883183203   -0.13186468792377756
0.2721723667622359        -0.0032617278012120696   -0.12618321112986047
0.286693238670153         -1.0285753319145139E-18  -0.0883571553458946
0.2833881382618907        -0.0022539824100291685   -0.09844370519469238
0.2775533148017929        0                        -0.11386025049775211
0.27524101991862265       -0.004325908749107388    -0.11934144692501578
0.23602653815490618       -0.005351177400303485    -0.185179570381321
0.2340286675337685        -1.089869100272362E-18   -0.187698116059722
0.25980730005516395       -0.009999999999999998    0.14999980468551094
0.2629693414821575        1.089869100272362E-18    0.14438533665313918
0.263413818984408         -5.36125401383409E-4     0.14357283854563
0.29836436371233177       -0.007346091160561372    0.03128428465756245
0.2986828347985105        0                        0.0280813852351618
0.2832662282492978        -0.009996609863322306    0.09879394684603246
0.2870989362967712        -0.008408704538536269    -0.08702988439187145
0.2999892318516752        -0.003104507540980698    0.002541805075503452
0.3                       0                        0
0.29747962475227674       -0.004489695148710251    -0.038805577656370674
0.29878538131218          -5.361254013833159E-4    -0.026968424391040198
0.2988672115386235        -3.2242718785222252E-19  -0.02604591843509605
0.2994628442407118        -0.0024180301639227936   -0.017944495514312236
0.25980730005516395       -0.01                    -0.14999980468551108
0.250007172750279         0                        -0.1658204232725455
0.29443323861916565       0                        -0.05752449214989616
0.3                       -0.01                    -6.275398847060503E-17
-0.23663436985202702      0.175643731484557        0.056155628345831106
-0.23665369419527         0.1778281873627405       0.048704874530314704
-0.238779160545804        0.1663746230098105       0.07282854733814731
-0.1532710480433985       0.22270594827371248      -0.13003863439449342
-0.159440317336599        0.216104170355974        -0.13370778871240319
-0.1585741116207405       0.22270594827371198      -0.1235164431450304
-0.1366617874254426       0.25319637786364396      -0.0849420396176937
-0.144053112660382        0.248162885268958        -0.08754360689302851
-0.141336955954034        0.2532962467957025       -0.0765824799863397
-0.13911906007674038      0.2396772396038765       -0.114894333799497
-0.1408610343553462       0.239677239603876        -0.11275189495617399
-0.130509691621081        0.2466343525038535       -0.11017584380423581
-0.1189247353819094       0.26642029751528395      -0.0698364688841763
-0.1195031695669364       0.266520166447342        -0.06845431571739781
-0.1166537792721302       0.2730821918071325       -0.04263815544018655
-0.11029266196279701      0.27647483704996795      -0.0373790475447671
-0.1094329193853418       0.2719519850623675       -0.0637695379898517
-0.0950355875340142       0.2730821918071325       -0.0799647023372008
-0.030160233807313398     0.2466343525038535       0.168112630286047
-0.0311567027157037       0.24700087116990052      0.1673912468356555
-0.025141205261926643     0.24462682142200534      0.1718302593346006
-0.022080620424286684     0.24899615877503609      0.16587151375316433
-0.0236239053920352       0.276525500301133        0.11391031023237701
-0.03737904754476675      0.27647483704996795      0.11029266196279701
-0.02173366986306915      0.2730821918071325       0.12228558423663641
-0.0609499511710868       0.272547012875847        0.10955924983630959
-0.0481244324215416       0.26642029751528395      0.1292449769854602
-0.046662833224917606     0.266520166447342        0.12957461507681461
-0.1433074843012018       0.2142203026086305       0.1535337972354215
-0.14806554739601058      0.2059890606381195       0.160140877266689
-0.124210946323034        0.216104170355974        0.166944986053168
-0.1511698303941885       0.20598906063812         0.1572138329664955
-0.164619135015515        0.18575884120241098      0.1685057663757565
-0.185546074147331        0.132013929951019        0.19530739020170348
-0.1896070907104575       0.1290007191383328       0.1934113895666675
-0.1834894017009485       0.1290007191383328       0.1992246318235295
-0.1975424979048065       0.104338161671627        0.20022614599625851
-0.1747426516570595       0.0920068829382742       0.225831218355307
-0.18062700175100202      0.0815384464344768       0.225222929542033
-0.1596981251692105       0.0945762396941568       0.235694386235126
-0.189890570259802        0.104338161671627        0.20749727551318
-0.2026112641819585       0.0945762396941568       0.200010026028452
-0.1884980199187465       0.0815384464344767       0.2186777954886225
-0.153193564495463        0.104338161671627        0.2358925175077835
-0.1424328464991848       0.132013929951019        0.2286595865845715
-0.14679239593660942      0.1290007191383328       0.2276198738181325
-0.1396297393173006       0.1290007191383328       0.2320826369205065
-0.1584531345486505       0.1434674943039494       0.210498651373004
-0.16194031453935198      0.1413319978716856       0.209285930976006
-0.11391031023237701      0.276525500301133        -0.02362390539203565
-0.0885567548730971       0.28557120427633353      -0.0246330764321223
-0.08871347696207631      0.28562186752749846      -0.0234535241574325
-0.1357090014755022       0.266520166447342        -0.023453524157432203
-0.1356381753644216       0.26642029751528395      -0.024950159431917203
-0.183351033033812        0.20598906063812         0.118113951685899
-0.181005449255598        0.2059890606381195       0.121677994054818
-0.1794161767975445       0.2142203026086305       0.109176451003039
-0.23199329186131398      0.1434674943039494       0.12488470927018
-0.24718441908501299      0.1290007191383328       0.110718911769388
-0.23134944933540502      0.1413319978716856       0.128462829915127
-0.22862312143159552      0.1434674943039494       0.1309524586444264
-0.2246592489127325       0.1290007191383328       0.1512846203014695
-0.19445475387692399      0.18575884120241098      0.1329699274640786
-0.1990419089640015       0.18575884120241148      0.12599988647258162
-0.217305480659341        0.175643731484557        0.1092135873671118
-0.222005160008222        0.1778281873627405       0.0953459213024115
-0.219231058302375        0.1663746230098105       0.119403634341523
-0.2024612737395785       0.216104170355974        0.0480460215887184
-0.20221839223520802      0.2142203026086305       0.0567219868487907
-0.1985055171499445       0.22270594827371198      0.03158512726806255
-0.18592372879896202      0.216104170355974        0.0934417177937464
-0.1826228287440895       0.22270594827371198      0.0839700126534082
-0.1859740318012805       0.22270594827371248      0.076260868727564
-0.2198781764244905       0.18575884120241098      0.0845413534749591
-0.2375414952730085       0.16637462300980999      0.0767692831919573
-0.2041873004943015       0.2059890606381195       0.0766554186882764
-0.205647734023937        0.20598906063812         0.07264651669725851
-0.222734282080161        0.18575884120241148      0.076701320075815
-0.0858392550551991       0.2466343525038535       0.147658790651195
-0.102876347331374        0.239677239603876        0.1482271161954542
-0.0775089904788304       0.248162885268958        0.149691478614978
-0.1192758981061582       0.22270594827371248      0.161787888095728
-0.112407017733137        0.22270594827371198      0.16663349893658502
-0.10513266818404901      0.2396772396038765       0.1466354080581104
-0.11083902306916199      0.20598906063812         0.1878382758185845
-0.1140943206932812       0.18575884120241098      0.2060974014893835
-0.107143393550966        0.2059890606381195       0.189970524334192
-0.1213217008882668       0.18575884120241098      0.2019274567975225
-0.0965703312823565       0.2142203026086305       0.1865042440972395
-0.0823626608647581       0.216104170355974        0.1910899778900845
-0.04267099857216825      0.2142203026086305       0.2056425243745095
-0.0604451116265552       0.2059890606381195       0.209558811262801
-0.036074183040482856     0.216104170355974        0.204933259557149
-0.112836522573669        0.1434674943039494       0.2380861131011805
-0.1164964386062946       0.1413319978716856       0.2376001813333645
-0.0979680032257422       0.1290007191383328       0.25250957369128396
-0.0934884013802129       0.132013929951019        0.252650432626306
-0.102572868556196        0.104338161671627        0.2619014216363455
-0.0900536190002046       0.12900071913833258      0.25543915159340597