% Model:              Lageos001.mph
% Version:            COMSOL 6.0.0.405
% Date:               Oct 26 2022, 19:27
% Dimension:          3
% Nodes:              9920
% Elements:           12112
% Expressions:        1
% Description:        Material settings
% Length unit:        m
% Coordinates
0.14135316369093          0.13479179890365         0.22770694777033748
0.13609918085446399       0.1276806540826854       0.2348928767412105
0.14797131800051258       0.1276806540826854       0.2276008339664175
0.1207030609609048        0.145024010512129        0.2332355192710705
0.1143313191676896        0.16528934682316498      0.22272804332671547
0.10571052668742059       0.16509025991724302      0.22709137065931248
0.2236346911768135        0.175322471525722        0.0961746114125947
0.217878113694705         0.187013760293431        0.0869193938873743
0.2154823896063905        0.17814848520623702      0.10876790421922661
0.2223829052654           0.1871803718775965       0.07422500811373961
0.207300705484525         0.2050775336361495       0.0704955509470786
0.20406252857275          0.204910922051984        0.0798122700861297
0.1842967277261055        0.13479179890365         0.194591590511429
0.18059681109425949       0.1276806540826854       0.2026880420636645
0.19075804747648098       0.1276806540826854       0.193155424195072
0.1286096801044996        0.175322471525722        0.206691995881627
0.1437471505214454        0.17814848520623702      0.193906869232856
0.12264427327881901       0.1871803718775965       0.199804631116686
0.111033608840805         0.187013760293431        0.206633470591524
0.191960189236498         0.187013760293431        0.1348226212814416
0.1996970689629865        0.175322471525722        0.1392232438413374
0.19927108039612199       0.1871803718775965       0.1235092907498342
0.184590428966434         0.17814848520623702      0.15552971019297548
0.1878512193624815        0.21394280872334298      0.0945536566167374
0.1855018239847945        0.2239515963000475       0.0737207963398034
0.1802593715875635        0.2238222534152135       0.0860822736165381
0.1854554952741675        0.2050775336361495       0.11640216694858961
0.1801560205434195        0.204910922051984        0.124720977729349
0.17729089683476498       0.216379879901573        0.10838674030205761
0.24137704301286803       0.17814848520623702      4.90229626889958E-4
0.2434378675300155        0.175322471525722        1.887605651120825E-4
0.2337123467298585        0.187013760293431        -0.020109511354918553
0.21688902225587148       0.2050775336361495       -0.03003926135253795
0.21817661758413148       0.204910922051984        -0.0202602458858074
0.2320407455869305        0.1871803718775965       -0.0334753755949977
0.1050186277496426        0.204910922051984        0.19230861096006002
0.1134878868042556        0.2050775336361495       0.18725305003235151
0.0417975310350056        0.216379879901573        0.2035502738223625
0.0363332886720688        0.21394280872334298      0.20714334826356148
0.0578384192792984        0.204910922051984        0.21134386974567748
0.09516477184746451       0.216379879901573        0.184725238592351
0.16098209158027751       0.21394280872334298      0.13532642308879
0.1587332803299035        0.223951596300048        0.1210348223874794
0.150350145632518         0.2238222534152135       0.131523505824687
0.14147407688185998       0.216379879901573        0.1521999774776805
0.167885508510661         0.23896568621216352      0.0686283967849056
0.1646702298355015        0.2388363433273295       0.0764258890164401
0.249669238227507         0.16509025991724302      -0.0202602458858075
0.2485715652301915        0.16528934682316498      -0.0298598189174693
0.26063791259504904       0.145024010512129        -0.0321856317799323
0.23849267730271698       0.175322471525722        -0.0488187858420765
0.2619567694401555        0.144824923606207        -0.020109511354918553
0.264875284062943         0.13859000991321402      -0.0251772326682366
0.27142364252953405       0.1276806540826854       -0.005182359406424091
0.268012929955312         0.13479179890365         4.902296268899661E-4
0.2606425138558605        0.144824923606207        0.03303364153940625
0.26178155925782          0.145024010512129        0.0209392360778095
0.248636851766991         0.16509025991724302      0.030412530704570798
0.2645214111134565        0.13859000991321402      0.02865714945351205
0.2713320594798425        0.1276806540826854       0.008750089796386371
0.249494028045172         0.16528934682316498      0.0207885015469206
0.23350601015015102       0.1871803718775965       0.02093923607780955
0.238416682857901         0.175322471525722        0.049188579092583104
0.232050172647982         0.187013760293431        0.034330319470592
0.2347576388471285        0.17814848520623702      0.0561423923754963
0.2624280070356395        0.13479179890365         0.054430800762254095
0.264016496155553         0.1276806540826854       0.0631897169701092
0.266910785900574         0.1276806540826854       0.049560901353341
0.27611080905407703       0.10586194242162861      0.0505575935960444
0.25025284697873096       0.08009485941686399      0.1447699073496724
0.257733822613623         0.08009485941686409      0.1309888933305504
0.2479056658503525        0.0949525865911001       0.1397382808644536
0.2196951620742285        0.13479179890365         0.1535096306734415
0.21770078666863202       0.1276806540826854       0.162185135129199
0.2257351200756435        0.1276806540826854       0.15080220866238098
0.273687516538834         0.08009485941686399      0.0931662856713647
0.278336204861892         0.08009485941686409      0.078190604026773
0.2709601314443045        0.09495258659110001      0.08697478638861289
0.26028163580179103       0.10586194242162861      0.1051033739280694
0.263207600936686         0.091629261403092        0.11102178733869299
0.27468614487811305       0.0454916534581803       -0.11170510855659739
0.279901471800027         0.0570260554444083       -0.0916689428576006
0.2785942659608535        0.0371599061215756       -0.1049017461759764
0.2539534481803765        0.1058619424216284       0.11958635082657461
0.245892066458034         0.1276806540826854       0.115042349706599
0.2728275616211855        0.1058619424216284       0.06601795790963279
0.279809416931661         0.091629261403092        0.057539279202016805
0.2547508391660915        0.0570260554444082       0.14781758672304
0.26273995989270754       0.0570260554444084       0.13310049765507942
0.26055137339629597       0.048967249063701895     0.140410791395951
0.2210180926310285        0.0570260554444082       0.1946767364894775
0.231724866288466         0.0570260554444083       0.1818010322964195
0.21720110085264852       0.08009485941686399      0.190810102676432
0.227226874101105         0.08009485941686409      0.178753352923052
0.22815216530795748       0.0489672490637018       0.188543888748545
0.14011982484858218       0.1058619424216284       0.243227637885012
0.15358743425940802       0.1058619424216284       0.2349556323741395
0.1758024382285795        0.08009485941686399      0.229517572764874
0.18798772424718102       0.0800948594168642       0.219648421408756
0.1727082389357295        0.09495258659110001      0.226176635626624
0.1571687216438985        0.091629261403092        0.23854155066056398
0.141524311575168         0.08009485941686409      0.2521025242399755
0.19180471602556098       0.0570260554444084       0.22351505522180198
0.178791744744529         0.0570260554444082       0.23405456844859598
0.1869851974560425        0.048967249063701895     0.22943135019316402
0.203529986151813         0.03715990612157565      0.217243379908522
0.208319900217485         0.045491653458180396     0.2110292127621625
0.215851764364138         0.03715990612157575      0.2050052613908345
-0.0676526996561579       0.13479179890365         0.2593343077526605
-0.0764808295115037       0.1276806540826854       0.2604771262323235
-0.06301609975181059      0.1276806540826854       0.2640579893604575
0.00648632482959287       0.187013760293431        0.234486206526346
0.0199267711052723        0.1871803718775965       0.233594589357465
0.00754012665469004       0.204910922051984        0.21898552580898348
0.0173774645850557        0.2050775336361495       0.2182687080694555
-0.008571674012004961     0.1276806540826854       0.27133775442729946
-0.0224816024108314       0.1276806540826854       0.27054062195178546
-0.00816373366389522      0.10586194242162861      0.280582612788791
-0.01406423256094114      0.13479179890365         0.26764410755850704
0.00681580829748552       0.144824923606207        0.262639079840964
0.01172920488695102       0.13859000991321402      0.2658105244435875
0.00758870260468515       0.16509025991724302      0.2503749541652175
0.01723155087817085       0.16528934682316498      0.24976490041858251
0.06715612484373619       0.16528934682316498      0.241183512543341
0.060387725799515         0.187013760293431        0.2266697510336875
0.0578334691572745        0.16509025991724302      0.24372216954083548
0.0712822973506545        0.145024010512129        0.2527585220311885
0.04143190171250195       0.17814848520623702      0.237795110839581
0.036676671401031         0.175322471525722        0.24065920458825799
0.059545146390657895      0.144824923606207        0.2558908303237365
0.0649963725683386        0.13859000991321402      0.2580082958069625
0.0860296341595121        0.1276806540826854       0.25748116944623
0.046223677068981096      0.1276806540826854       0.2675089199470555
0.01894322811155425       0.145024010512129        0.261933561201484
0.03243802413401665       0.1276806540826854       0.2695281528213675
0.0401000258677978        0.13479179890365         0.264996526154061
0.195054777156953         0.144824923606207        0.17600958897374802
0.20073858504047248       0.13859000991321402      0.174633414981796
0.186698325935103         0.16509025991724302      0.166999823872623
0.1675838252824055        0.175322471525722        0.1765720603091795
0.20289881340143848       0.145024010512129        0.1667336435614185
0.1928997668458175        0.16528934682316498      0.1595904501453665
0.2246824507327995        0.1058619424216284       0.168258864489877
0.233796501797986         0.10586194242162861      0.155346209782357
0.2364908644462375        0.0916292614030919       0.1602377904496785
0.214701913168808         0.09495258659110001      0.186780873703153
0.197739711540649         0.10586194242162861      0.19922915355575
0.20068591666072502       0.0916292614030919       0.203295945136071
0.186212927353155         0.1058619424216284       0.21004284047138652
0.165182227073408         0.145024010512129        0.20416382694798552
0.16147600641793852       0.13859000991321402      0.21146703881118
0.15563152462774          0.144824923606207        0.211670900325249
0.1492597828345246        0.16509025991724302      0.20116342438089402
0.15682577585155802       0.16528934682316498      0.1951540618468605
0.123643869108265         0.0949525865911001       0.25631269951291497
0.1076116207955324        0.091629261403092        0.2646201381688145
0.12764778649452918       0.0800948594168639       0.2594048112469
0.10314726937382959       0.10586194242162861      0.26106299999701704
0.0882902002513283        0.1058619424216284       0.26645466722559047
0.08962219897706951       0.08009485941686409      0.274868468445377
0.0484842431607972        0.10586194242162861      0.27648241772641596
0.03284596448212645       0.1058619424216284       0.2787730111828595
0.053919065709286         0.0916292614030919       0.28052952216792
0.0695175047519707        0.09495258659110001      0.2759552913656835
0.0745877019111978        0.08009485941686399      0.2793232683086015
-0.0797517135664807       0.1058619424216284       0.269133634705753
-0.06447748627318971      0.10586194242162861      0.27319572271653597
0.034275955532990544      0.08009485941686409      0.28707137155643603
-0.057539279202017804     0.091629261403092        0.279809416931661
-0.0449409308633896       0.09495258659110001      0.2810059056902395
-0.03798233588296205      0.08009485941686399      0.286604528324077
0.018661253772684152      0.08009485941686399      0.288507488815497
0.01254508558317052       0.0949525865911001       0.284300241166571
-0.00184556883400789      0.091629261403092        0.285658313952881
-0.0239429889322104       0.1058619424216284       0.279678355307864
-0.0223874936600439       0.08009485941686409      0.28824228285006054
0.274868468445378         0.08009485941686409      -0.0896221989770667
0.272080100892678         0.0949525865911001       -0.0834051856774489
0.2793232683086025        0.08009485941686399      -0.0745877019111949
0.2646201381688155        0.091629261403092        -0.10761162079552959
0.2543851317613685        0.13859000991321402      -0.07798085592635211
0.2488237191669825        0.145024010512129        -0.0839928160909526
0.2525464841049575        0.144824923606207        -0.0724293784916094
0.25279336474598          0.1276806540826854       -0.0989604229650599
0.2616408493116345        0.1058619424216284       -0.1016725878406082
0.247383182785707         0.1276806540826854       -0.11179987230686321
0.2464859005213735        0.13479179890365         -0.105241967828835
0.2594048112469015        0.0800948594168639       -0.1276477864945266
0.255503604046851         0.10586194242162861      -0.11623750455765
0.219648421408758         0.0800948594168642       -0.18798772424717902
0.2171388107830315        0.09495258659110001      -0.18394222775477748
0.229517572764876         0.08009485941686399      -0.175802438228577
0.23348042227649948       0.13859000991321402      -0.1275919337804812
0.2268226534406735        0.145024010512129        -0.1323613246424722
0.23279691603755048       0.144824923606207        -0.1217839783627632
0.226874992615559         0.10586194242162861      -0.1652906133826415
0.2276980830284355        0.1276806540826854       -0.147821627504886
0.2358185042895795        0.1058619424216284       -0.1522592597556725
0.219814085659466         0.1276806540826854       -0.1593091909423635
0.220255267282106         0.13479179890365         -0.15270490556234897
0.1804926623139675        0.223951596300048        -0.0852530431449607
0.18594862211750748       0.2238222534152135       -0.0729843052219873
0.18802065053623299       0.21394280872334298      -0.0942162914123597
0.0683825738876213        0.13859000991321402      -0.25713154754086354
0.0603387713086366        0.145024010512129        -0.2555919972376715
0.07212122489531389       0.144824923606207        -0.252634657998573
0.0497363973315297        0.1276806540826854       -0.2668781395197025
0.0894070882138545        0.1276806540826854       -0.25632796014117853
0.0935420122816677        0.13479179890365         -0.251159437184061
0.1024404648855952        0.1276806540826854       -0.2514032651479305
0.0287314882071039        0.24838607441542102      0.165767486624796
0.01630411373949985       0.23896568621216352      0.1806365873468585
0.034631161930409         0.2464080597258045       0.1675820716112385
0.109836699194339         0.144824923606207        0.23866638014716002
0.11560258112002861       0.13859000991321402      0.239643177225312
0.09912662537971151       0.1276806540826854       0.2527282388532155
0.09262258452595579       0.13479179890365         0.2514999558330975
0.0951544259842825        0.17814848520623702      0.2218304587614715
0.0843702395121194        0.175322471525722        0.228349936857403
0.07326026203659801       0.1871803718775965       0.222702587299954
0.1092901371820582        0.2238222534152135       0.167210241285822
0.08369458698656171       0.24838607441542102      0.145943736232994
0.0785600463282491        0.2464080597258045       0.15202429813377802
0.1009877744224504        0.2388363433273295       0.1508597710565355
0.10778642272756299       0.23896568621216352      0.145868049581616
0.1201922154293824        0.223951596300048        0.159372249356145
0.125434377572319         0.21394280872334298      0.168803707064187
0.15569364128950852       0.187013760293431        0.1754575262646915
0.1465372548149454        0.204910922051984        0.162905945180357
0.1654165000032915        0.1871803718775965       0.16613515555241648
0.15361233131021348       0.2050775336361495       0.156033512000324
0.1999588620213205        0.216379879901573        0.056534954434575
0.216967972867107         0.204910922051984        0.03060086230393095
0.21797028100442398       0.2050775336361495       0.0207885015469206
0.2045932392853785        0.21394280872334298      0.048683478042174204
0.2103055847214145        0.21394280872334298      1.88760565112111E-4
0.1987440726894825        0.2238222534152135       -0.0201095113549185
0.204680301649548         0.21394280872334298      -0.048316133042877
0.1968005005533685        0.223951596300048        -0.0333952915334469
0.2002233867622405        0.216379879901573        -0.0555908532695729
0.179102849699764         0.23896568621216352      -0.028593181749735252
0.1804071050227145        0.2388363433273295       -0.0202602458858074
0.2077967931626805        0.216379879901573        4.90229626889979E-4
0.15805797665041202       0.254191430953611        -0.0201095113549185
0.171122857829144         0.2464080597258045       1.88760565112118E-4
0.16823827659426902       0.24838607441542102      4.9022962689001E-4
0.155452579164887         0.25427978397358497      -0.03429704204929885
0.1985125459691105        0.223951596300048        0.02093923607780955
0.180175578302342         0.23896568621216352      0.0207885015469206
0.17918326910958          0.2388363433273295       0.029164313419551047
0.19679958458371302       0.2238222534152135       0.0342567129744488
0.1169383974974624        0.2464080597258045       -0.124933899694558
0.1083305202537652        0.2388363433273295       -0.145676695073641
0.0970378707595871        0.25427978397358497      -0.1261960502582886
0.0845436896077087        0.24838607441542102      -0.145453506606105
0.1013502874661444        0.23896568621216352      -0.1504111699431915
0.1081532899678846        0.2541914309536105       -0.11700248843028259
0.14630876725070238       0.2464080597258045       -0.08875140972257381
0.141648056358925         0.254191430953611        -0.0729557712555665
0.16474688207597302       0.23896568621216352      -0.075854239561116
0.1582599354566245        0.24838607441542102      -0.057080214310756404
0.16825097126390348       0.2388363433273295       -0.06818219543827561
0.16482808505503152       0.2464080597258045       -0.0459866337021497
0.23747255332876802       0.16528934682316498      -0.07928567488699839
0.24048013674009952       0.16509025991724302      -0.0701035656291464
0.234983748311666         0.17814848520623702      -0.055188361527796596
0.1579245986421225        0.24838607441542102      0.0580015446365126
0.164726231073054         0.2464080597258045       0.0463501553247794
0.1411292981159632        0.25427978397358497      0.0736499333037204
0.155403772270562         0.254191430953611        0.0351622523999097
0.1578079207607295        0.25427978397358497      0.02093923607780955
0.1360876453728424        0.2658904970499645       0.02797134883051475
0.1371972649833322        0.2659788500699385       0.020788501546920652
0.25220783812655          0.145024010512129        0.0732068491502664
0.237425243381545         0.16509025991724302      0.0798402147145869
0.2402021760376805        0.16528934682316498      0.07058573831543101
0.2486575231301115        0.144824923606207        0.0848243932678235
0.2533380005130395        0.13859000991321402      0.08131830450956559
0.246099250673947         0.13479179890365         0.106142968519068
0.2514705703361585        0.1276806540826854       0.1022751329885456
0.2264924641913975        0.144824923606207        0.13314242436941282
0.2317829024056675        0.13859000991321402      0.1306502786245022
0.2323086984692155        0.145024010512129        0.1224773652170756
0.21649341763577648       0.16509025991724302      0.1259992309533608
0.221076418720649         0.16528934682316498      0.117493186663839
0.2227750277053425        0.187013760293431        -0.0734652332181357
0.2076233043742835        0.204910922051984        -0.0700291189756759
0.21806610436761          0.1871803718775965       -0.0860853211047006
0.2041152201778735        0.2050775336361495       -0.0792475998971081
0.17780032772669102       0.216379879901573        -0.1075490168902632
0.221445750199336         0.16509025991724302      -0.117076837158809
0.2166513871922245        0.16528934682316498      -0.1254655660109824
0.21592241891570552       0.17814848520623702      -0.1078917338275446
0.223783568844945         0.175322471525722        -0.0958276854209266
0.1858769650843285        0.204910922051984        -0.1160227041352038
0.18033751374683102       0.2050775336361495       -0.1241836798187486
0.19233546301752402       0.1871803718775965       -0.13405438467129419
0.199827849274065         0.187013760293431        -0.1228604253427962
-0.111021787338694        0.091629261403092        0.263207600936686
-0.100587060320067        0.09495258659110001      0.266207155418157
-0.1181515230186766       0.10586194242162861      0.25462416765713103
-0.164439979520245        0.13479179890365         0.2116380497068035
-0.1730033355715995       0.1276806540826854       0.2092068269777975
-0.16204195131851298      0.1276806540826854       0.21780738413999248
-0.1148806389636996       0.1276806540826854       0.2459676591837015
-0.132295393676911        0.1058619424216284       0.2475705514769295
-0.12734892246585922      0.1276806540826854       0.239749666360148
-0.1184714572785966       0.13479179890365         0.2404073309169325
0.0831244638019583        0.21394280872334298      0.193180739498543
0.0672452809454359        0.2050775336361495       0.20837772766849
0.0198872982917981        0.223951596300048        0.1986206884524205
0.00790159834150936       0.2388363433273295       0.18136914249584848
-0.01251844394654174      0.175322471525722        0.24311585620701398
-0.01452422710484784      0.17814848520623702      0.240940166941359
-0.046192569788209396     0.144824923606207        0.25863485457072055
-0.042018157820631445     0.13859000991321402      0.262730438978082
-0.0341713791121681       0.145024010512129        0.260385009600304
-0.0429667463241746       0.16509025991724302      0.2467773587482675
-0.033398484804968404     0.16528934682316498      0.24812088392455747
0.006499856280232919      0.2238222534152135       0.199653075970475
-0.01241662345465342      0.21394280872334298      0.209938805506634
-0.0146696414433386       0.216379879901573        0.207278916423511
-0.0858870060600716       0.145024010512129        0.24817626511214802
-0.094045292210113        0.13859000991321402      0.248894138471298
-0.0973098186393784       0.144824923606207        0.24404208796604648
-0.0696973510795191       0.17814848520623702      0.2310960762782905
-0.0826611825960368       0.16528934682316498      0.236318769289695
-0.061201052728088304     0.175322471525722        0.235619316107755
-0.09176313161014421      0.16509025991724302      0.233076669269055
0.0601245792259148        0.2238222534152135       0.190495758086742
0.0644346809936553        0.23896568621216352      0.16953929544030652
0.0565413946736164        0.2388363433273295       0.17251165698118
0.07273704375326301       0.223951596300048        0.185889765669593
0.0964443360162584        0.254191430953611        0.126827467372564
0.143144138577841         0.23896568621216352      0.11137843778738139
0.13794435293069882       0.2388363433273295       0.11801930605015801
0.11666249147822119       0.2464080597258045       0.1251915779286224
0.1074283992718008        0.25427978397358497      0.117477361615953
0.14611261333064          0.2464080597258045       0.0890739711018618
0.1285628833748886        0.24838607441542102      0.108517017351343
0.13400557943947058       0.2541914309536105       0.0861929295757341
0.09173661123329489       0.2659788500699385       0.1041136181049546
0.0862695480605371        0.2658904970499645       0.1089027486152372
0.07382764188559339       0.277247578542898        0.0876542040390082
0.0870129704246358        0.277292399801621        0.0744155090699477
0.0971793072978769        0.27178420660812846      0.0817895303293459
0.063345011075119         0.27178420660812846      0.1100942987183406
0.0614952401283528        0.273246257774105        0.1074933395797326
0.1183137914009648        0.2658904970499645       0.07282918606473561
0.0628124918259857        0.2852950413392075       0.0682739354209951
0.0677834363375113        0.2853398625979305       0.0631392791443858
0.0394649400091376        0.289341183366724        0.0687328023437065
0.03751447488189715       0.2902452081278535       0.0659574357684905
0.02713253825189705       0.2853398625979305       0.0885719378844308
0.01390611776315248       0.29232737603416703      0.0659645746574337
0.00237126457865522       0.2964917118467935       0.0456841538222595
-0.002961350383589855     0.2964917118467935       0.0456497010950068
-0.02078850154691965      0.2853398625979305       0.090271817396283
-0.01475728343404134      0.29232737603416703      0.0657793873992923
-0.0277207165779273       0.2852950413392075       0.0885341813068035
-0.0397918828983758       0.289341183366724        0.0685440417785952
0.0202602458858084        0.2852950413392075       0.0905332084039129
0.038147688311504654      0.277292399801621        0.107952206502444
-1.887605651112955E-4     0.289341183366724        0.0792568229075132
0.047250482302678504      0.254191430953611        0.1521647408301935
0.0607700500011436        0.25427978397358497      0.1471352863360974
0.0505952620454223        0.2659788500699385       0.1292105675787706
0.043819924021079         0.2658904970499645       0.131841032449347
0.00678193582992981       0.25427978397358497      0.1590465240385515
0.003351377548330285      0.2659788500699385       0.1387228156577048
-0.003915029568522655     0.2658904970499645       0.13887734200365598
-0.0477647555908151       0.187013760293431        0.229661449930677
-0.0334271753890941       0.2050775336361495       0.216392765921647
-0.03448097721419135      0.1871803718775965       0.23189344663900952
-0.0431646561495615       0.204910922051984        0.2148216154936365
-0.00764247691945389      0.254191430953611        0.15914870083130198
-0.011866157320785659     0.2464080597258045       0.1707110494742585
-0.034437397105633656     0.223951596300048        0.1966208234019205
-0.029697052081735703     0.24838607441542102      0.165597231662101
-0.03303565504435715      0.23896568621216352      0.1783368899272945
-0.041324223392180295     0.2388363433273295       0.176775308420218
-0.0476069312708899       0.2238222534152135       0.194003038561525
-0.0604971521970118       0.21394280872334298      0.2014164074042095
-0.07004883372497449      0.216379879901573        0.195634630031474
-0.0874852165226148       0.2388363433273295       0.159070858412285
-0.0799253204216399       0.23896568621216352      0.1628107612188085
-0.0845436896077077       0.24838607441542102      0.1454535066061056
-0.0574834179675553       0.2464080597258045       0.16117916974886
-0.038363577503044755     0.2902452081278535       0.0654672061416013
-0.0631392791443861       0.2853398625979305       0.0677834363375111
0.1717096907776745        0.03715990612157575      0.2431767329948965
0.163147334675798         0.0454916534581803       0.2476155420280075
-0.0390767173886625       0.0570260554444082       0.291926427646724
-0.02242259587938785      0.0570260554444083       0.293675426609856
-0.0300139624356988       0.048967249063701895     0.2944509646410445
0.0583291014569211        0.16528934682316498      -0.2434689872447815
0.0677123491329373        0.16509025991724302      -0.241164350299451
0.0788952417594077        0.2464080597258045       -0.15185061386075802
0.0834711097844152        0.21394280872334298      -0.19303121101761
0.0735802614194023        0.2238222534152135       -0.1857136074863345
0.0960353071261391        0.216379879901573        -0.184274163568768
0.0608898439958092        0.223951596300048        -0.1901002614749025
0.06501022873603661       0.2388363433273295       -0.1695018326323295
0.057011495882196         0.23896568621216352      -0.17217749606270852
0.04074927004980005       0.2964917118467935       0.0207885015469206
0.02743535737470756       0.298309956527029        0.01607703338816378
0.03805312563164735       0.2964917118467935       0.02538945520919895
0.01444476851290268       0.298573879753107        0.0253965940981421
0.0292164799150443        0.298573879753107        1.887605651121075E-4
0.02369950538018355       0.299062384796216        1.53116735536021E-4
0.02655405003221069       0.2984406626779519       -0.015101433284021715
0.041014476015237354      0.2964917118467935       -0.0202602458858074
0.064345262250186         0.29232737603416703      -0.0201095113549185
0.038378005471145345      0.2964917118467935       -0.024895652275339
0.0147717114021419        0.298573879753107        -0.0252078335330302
0.12701696503947502       0.27178420660812846      1.887605651120935E-4
0.123839582877852         0.273246257774105        4.902296268899751E-4
0.137447320873015         0.2658904970499645       -0.0202602458858074
0.13603334377545          0.2659788500699385       -0.0273894267326514
0.0687328023437069        0.289341183366724        -0.0394649400091369
0.0885719378844311        0.2853398625979305       -0.02713253825189615
0.050173938521597         0.29232737603416703      -0.0450253385796245