% Model:              Box_wing_Ray_Matlab_test.mph
% Version:            COMSOL 6.0.0.405
% Date:               Oct 26 2022, 09:57
% Dimension:          3
% Nodes:              6448
% Elements:           8784
% Expressions:        1
% Description:        Material settings
% Length unit:        m
% Coordinates
0.07087968068456778       0.25478101565942685      0.339193554701588
0.06749914563218379       0.25597688273663954      0.34013708281433547
0.06875600341946604       0.25270907866365633      0.338911176995499
0.07177007057597942       0.25767043694619934      0.3399183153598805
0.07335305856505166       0.25502854763608         0.33882688197367433
0.07269456556447375       0.2565593395499403       0.3394164653659104
0.07262476929433571       0.2576589091419654       0.3397618250495161
0.07211944117733123       0.25808938607582194      0.3399817455860472
0.07411566621625114       0.2563336699331558       0.3390877328631215
0.06439652805745272       0.24003008225709588      0.3353564199933094
0.06440750714080502       0.24071654972955903      0.33559921875296067
0.0637376597132735        0.24017614931029546      0.335512118447474
0.0748493462674925        0.2545093683294225       0.3383884415095711
-0.1134988812860334       0.3739236619165276       0.33742504937314
-0.1123836925876432       0.3762179762132541       0.33773239885782164
-0.11606976971928962      0.3757535166750333       0.33638124305085576
-0.11742629280578214      0.37875430949273964      0.3357089696790334
-0.11353127058693746      0.3795439341735633       0.33713217870256074
-0.11523765553033583      0.372929102645841        0.3368165829610139
-0.11342340812890865      0.37053612349386567      0.3375769390508397
-0.1172399635600185       0.37339404667166703      0.3360388382328468
-0.11623451118492645      0.37139045549761796      0.3364963980321165
-0.11803841724515887      0.37127514198726835      0.33581081092191184
-0.11827230355951526      0.37330512781846836      0.3356455375653018
-0.11941552001704125      0.37336797333576693      0.335199266180183
-0.11850364230932067      0.37436262931445874      0.335512118447474
-0.0667947940697046       0.2691031566965061       0.3395494547119246
-0.06693183881585803      0.2700140001833682       0.3397601027359421
-0.0684349231489579       0.2693350691664348       0.33922978353326894
-0.06693380329559306      0.2668714168338389       0.3389128712088386
-0.06718197940383704      0.2708343170541416       0.3399183153598805
-0.06667557365096032      0.270631508267956        0.3399817455860472
-0.06919157964896117      0.2663278108611841       0.3382335196948122
-0.06616884101687627      0.2704293144306296       0.3400445251495494
-0.06558540827529204      0.2684655137881877       0.33965456221504936
-0.06464765413294367      0.2657932196549763       0.33913557556443663
-0.06396541615741487      0.2686585173340942       0.34006929599288516
-0.06149541684295054      0.26644639603931264      0.34000680776194253
-0.061755162455884874     0.2710483454734901       0.34118246407850145
-0.06761162844596062      0.26218311114509424      0.33743336944493146
-0.3179216499445211       0.44299456529988157      0.11962709225304817
-0.31625509425863374      0.4447583467006735       0.12291893176251717
-0.3170215274768279       0.44786569391845654      0.11861338432402713
-0.31753375233359665      0.44800294415517095      0.11708243902208794
-0.3183111662298996       0.44505958254542566      0.11707448338241866
-0.3185064587374681       0.4482635800505608       0.11411189795292864
0.2589034631437473        0.2778924448733691       0.24827065646885607
0.26168692891621875       0.27570812371228004      0.2447233947464325
0.2634922363354654        0.2838974697648301       0.24554826070513724
0.257857386146546         0.27092254338621513      0.24690827590415354
0.20981281390145382       0.19239056183525113      0.24940494241678732
0.21250963561391176       0.19034595997052492      0.2458374713439752
0.21547762533399667       0.19807449894210294      0.24858385298681127
0.17509809533837536       0.24201084455195818      0.29822141637114274
0.16973172377075976       0.24183096712660013      0.3010352310989341
0.17292360713498933       0.23638482942428157      0.29712877853228453
0.15513575293295248       0.27759418526228846      0.3196826733659458
0.1598225147298314        0.27231136539755285      0.3161170816042606
0.1573028410869391        0.27922138766006793      0.3191148284170278
0.16357142946738765       0.2752220081618471       0.31512542934236143
0.15628159650922618       0.27948386068514663      0.3196460582406598
0.16488399576998483       0.2815782709010243       0.3161305252679783
0.1701433583611697        0.2755193290637575       0.3119460917923455
0.11690877055789388       0.2839745033751095       0.33576439916575207
0.11480256846969834       0.2848527193917472       0.33661622934662094
0.11657037365819485       0.2824053213504716       0.3355121184474741
0.11721400390860336       0.282608257743834        0.3353564199933089
0.11785741090757143       0.28281077984218445      0.33519926618018314
0.11751479126756872       0.2846191978558547       0.3357184539062464
0.11950326189986105       0.28597350701022023      0.3353844678898197
0.11674936550608925       0.2856384205409839       0.33618623390304764
0.12390681643162724       0.2856524127247373       0.3338611955674756
0.1552594306502495        0.27974922267782165      0.3201740711870004
0.17419466892954052       0.25037980115360237      0.3018838670816968
0.18049348738087223       0.244630873705008        0.29622750394798963
0.09564756102543752       0.18547971163899116      0.30351401867612204
0.0995065261765847        0.18195000558216004      0.3003525979517451
0.10055546819913329       0.18772394376597856      0.30339248310473926
0.07352303047876275       0.25228875216854935      0.33793566320596874
0.07042511111177101       0.25050033937464694      0.33791727214859496
0.06458029752597695       0.2421446135133624       0.33607554503963805
0.06550023275674394       0.2508632192546523       0.3388582615726766
0.05871673616763444       0.24266652457902474      0.33713381659383085
0.061267944692150925      0.2535316110606868       0.34035276895892885
0.06072281535542024       0.24798691282341462      0.33865036558901934
0.07430538088199075       0.25785799137633686      0.3395143393113587
0.07246832793941149       0.25850883611759534      0.3400445251495494
0.06947124253928612       0.24305631431834276      0.335583125300579
0.06505499591270666       0.2398837680396108       0.33519926618018303
0.051265684106247586      0.2496695373219269       0.34044401943005004
0.052243732065546125      0.2368898896035221       0.33592102232037274
0.07663499376892004       0.25679818698583085      0.33875342959138127
0.07414384111277812       0.24701104679036023      0.3360943822211557
0.07331358673814527       0.23940931798459278      0.33360044310092174
0.07572257325378631       0.2611196095722102       0.3402123009831882
0.0732434961153646        0.2628977849861469       0.34118246407850095
0.07812804558899791       0.2522299284821314       0.3370371793202994
0.11528692156302492       0.2881051421795558       0.3371757530208346
0.11280881306898798       0.28770194654327047      0.337843788503716
0.11464202187290336       0.2908282306754566       0.33794170812183427
0.11069398969043455       0.2918588581238682       0.33933147846462
0.10941216803017094       0.28808591497395325      0.33892681225161275
0.11054530562790689       0.28252551240849205      0.33737007678298303
0.1082594701793892        0.2738123731371083       0.3359210223203724
0.10552132900298873       0.28662651124943667      0.3397169866282134
0.10613170308746818       0.29115010540506586      0.3404916436704986
0.05277686500775452       0.3406199455991064       0.3571473582505454
0.054077372214379534      0.3309060401232096       0.35633734107045545
0.060619417152783295      0.3420194216125113       0.35622316137692367
0.057639333266672504      0.34420431411094704      0.3567253258779563
0.06042613989010831       0.346728896262475        0.35645473280321505
0.05649990148766999       0.3477809286717004       0.35701045374990253
0.07744253337295036       0.26708302805065937      0.3415586893480803
0.0743645329173098        0.26931551444600915      0.34273758479427485
0.08056446919643033       0.27328551890960506      0.3425676388938513
0.07613948096731048       0.27965200153298775      0.34497473775448917
0.03557621272530471       0.33410082554980625      0.35831523584553887
0.005302339269511016      0.2397145518971215       0.33935993646156176
0.012804161775381137      0.24246661923072807      0.3403725858954187
0.0019762002682572684     0.2500677166201663       0.34277515202429554
-0.0013671288783458759    0.2329746556328283       0.33671169815662744
-0.005444013817239361     0.23564888867395595      0.33752927792185333
-0.0031313987339920287    0.23002097051518         0.33551211844747403
-0.0011692483878034574    0.24064477486802988      0.339510910585885
-0.005989173458369584     0.24395331245713578      0.3404434452726397
-0.0026338355367835618    0.22956503856436342      0.335356419993309
-0.0013244722343596224    0.2306624974767202       0.3358327919658854
1.704522801240921E-4      0.23674526826231557      0.3381631404018973
0.0027807049029144435     0.23447486846639454      0.33740420989005365
0.00652522965934541       0.23375884513644923      0.3372116313660717
0.002402527111959201      0.22958886084115623      0.33553786712832945
-0.0021367427553004937    0.22910909280745984      0.33519926618018314
0.14592296847483657       0.13423865740317104      0.24620914945190386
0.14775527249087497       0.14267981051617581      0.25270635324626406
0.14108077261795124       0.13482777891423173      0.2493275647295355
0.09742104442018633       0.21705254813606856      0.3191148284170278
0.09666785718494911       0.2177904787324512       0.31964605824065995
0.09636948703829039       0.21471780284418124      0.3183422772668381
0.10526944308842232       0.21527981805997926      0.3160888550593275
0.10061765285239022       0.2089210614882672       0.3144597261979064
0.09588539581847821       0.20742583727207956      0.31504555921594507
0.09890975253063923       0.20189141287536946      0.31147254831669746
0.10774942951225343       0.2058928271736435       0.3108655573410882
0.10664633862252176       0.19374417603548963      0.3048931504382134
0.10289448888021797       0.181013362950255        0.2987786775148907
0.10472724067476401       0.1853670431768133       0.30077945124025157
0.0959153165805316        0.21853137188879526      0.3201740711870003
0.09400358784522704       0.21743566839275086      0.32018768247710705
0.09356617331539474       0.22171749480743755      0.32217038584040036
0.09436405574643622       0.22615087015890997      0.32383222156697816
0.16509425467599062       0.2673559593935602       0.3121608947754637
0.1743138820054906        0.2645195819219677       0.3065805844988162
0.16477432858913818       0.24052159007809512      0.303079317940595
0.16485920501001713       0.24535998032517575      0.3048976830131422
0.16638973945200197       0.2557602101034992       0.3078379825129381
0.15960578179208496       0.2490190351484173       0.30882442842304214
0.12911061632522622       0.2802798050338061       0.3308147100001612
0.1414366994857729        0.13041349532176386      0.24508244462859122
0.13720066059399433       0.13104158894311613      0.24786567537012585
-0.03455526957952197      0.37217908822583223      0.35690629004964197
-0.03512439907222996      0.36783171141773113      0.3569559861442841
-0.028080447851758436     0.3704441649727425       0.3577350269189629
-0.03692593004538244      0.369764964182151        0.35666844215792887
-0.037719522134144486     0.3730269471424914       0.3564547328032149
-0.03896785499762952      0.3710593654611047       0.3563478243697075
-0.040295283730898544     0.369047584406791        0.35621532297023506
-0.18908829626777426      0.36972328994739745      0.298943552869254
-0.19219167830217526      0.3658987415703249       0.2969414152207912
-0.18672884772993611      0.3653610549036248       0.3006233700749701
-0.185115724048216        0.3732089834234643       0.3014352634411137
-0.18356851420689513      0.4082030308524768       0.29884976637482374
-0.1798668127972466       0.4042902907737288       0.3018334353436808
-0.18148986431399858      0.4115500942251297       0.2996373028995122
-0.18512938961802672      0.41252530209117666      0.297092273006319
-0.1858561645692228       0.41177969161897876      0.2967417159982551
-0.1871631497316599       0.41307024647122315      0.29563965971797684
-0.12127659584018152      0.36825751979588445      0.3346342882336204
-0.17858785446801403      0.38017251558120524      0.30520730672355323
-0.17246654211652693      0.38175829723650956      0.3088244284230421
-0.17857784900768542      0.3886502652710425       0.3045313180301168
-0.1159978196241291       0.3844215996535729       0.33588735326763397
-0.11010078726652847      0.3850718715983535       0.33801654333736714
-0.11365337677069147      0.3933733621705365       0.3359946430560504
-0.10998722670237521      0.3732402046565776       0.33873136844807367
-0.10941707890775741      0.3786291547469388       0.33867967291346623
-0.11044981872178243      0.3692443566124733       0.33869940087837513
-0.10630471361971622      0.37628709639537816      0.33989460848799447
-0.10765049030497541      0.37176980259330583      0.3396140384322749
-0.10735706399988872      0.3686448200742272       0.3398117199502016
-0.1304265691869245       0.3699332591073336       0.33081471000016105
-0.12783292020030532      0.36041412967110903      0.3320661414046285
-0.14596308836617006      0.35485203189906994      0.32383222156697833
-0.14265619402019442      0.3600125333785841       0.32545671148116
-0.15201600089880257      0.35879603995833287      0.32085871393235754
-0.13479689619989305      0.35911513293268216      0.3290601037202254
-0.10458523460479244      0.3827883465214648       0.34010936876405573
-0.10541745197899446      0.39116655277367784      0.3391557563890772
-0.09736887888228032      0.38900994411219053      0.3420114432203202
-0.11673655859906068      0.3686026583769908       0.33638947809206515
-0.1164652502653292       0.36479890019952843      0.33656977888773276
-0.11308972912100762      0.36640489542629845      0.3378051880284974
-0.10956939568972761      0.3659244896658112       0.3390901866572861
-0.09995135184380335      0.37904941834149064      0.3418841066349921
-0.10323491546268324      0.3716016152799919       0.34113503191951994
-0.09461224931097706      0.37062182015354167      0.3439431425034573
-0.11895957426013755      0.37386506611725         0.33535641999330923
-0.10648092045397285      0.3057587999764326       0.33589764990651994
-0.10864084478489042      0.306176234667759        0.3351992661801831
-0.10586575607019631      0.302571516036649        0.33558409204507217
-0.10465721848359226      0.3058064429112268       0.33653952052321284
-0.10761020346784583      0.30672959142164763      0.33565451564083143
-0.1012774847902494       0.3045763740752406       0.33748638387211116
-0.1039656940060154       0.30842273385877417      0.3371867544391195
-0.10606190757147779      0.30768905404641955      0.336349528303939
-0.10557596052525806      0.31192880467039774      0.3371489941910634
-0.1750014311057068       0.3721209707594474       0.30783605179832046
-0.06343027111631587      0.2630012995385021       0.3386197755487881
-0.06386286592557684      0.25844878584959946      0.33718789064768573
-0.06611929147402976      0.25466085692227053      0.3355121184474739
-0.06431350085631554      0.2543504475412776       0.3358265955119809
-0.06157451523539567      0.25586966507217607      0.33690478057485373
-0.06013554741403028      0.2579446219689194       0.3378460625534437
-0.06591635508066687      0.2540172266718619       0.3353564199933094
-0.057785217367781375     0.25476801055350673      0.3373615077601416
-0.07038050564768564      0.2707523736083352       0.3391419118766942
-0.07011243355987158      0.2743728710208975       0.34013708281433574
-0.07364328516817573      0.27339399307476037      0.33902378270712147
-0.07436357210723411      0.2795434647755278       0.34035276895892913
-0.07471223968739255      0.26297176040107556      0.33592102232037274
-0.07948920796374233      0.2775885753162392       0.33855149793873857
-0.08112749100610467      0.2878627334646272       0.34044401943005037
-0.0604486036526377       0.26183012937832206      0.33892791553467727
-0.057147077044662625     0.2665414777513488       0.34093550931280747
-0.05617383148309392      0.2599933573098256       0.33927006243127694
-0.04827670182255335      0.2650265426789269       0.3421819601799043
-0.05530511961014191      0.2719653635863916       0.3427375847942755
-0.04492604709888748      0.2734714378493667       0.3449747377544897
0.021919552148241535      0.32044416497274253      0.3577350269189629
0.03058904560475865       0.3154253971383919       0.3567842142582156
0.00959293069978644       0.307504488373383        0.3562231613769237
-0.04316130582252487      0.362110925521917        0.3558991242323808
-0.05257461522040428      0.36960047807382324      0.3542029197943632
-0.03404332802095086      0.3602313097535416       0.35718347753854707
-0.03798548414333688      0.36549046185883655      0.356616319098791
-0.023081763149692076     0.35178881969361225      0.35831523584553887
-0.03900077294399757      0.345367859887545        0.35622316137692367
-0.05192274882046982      0.3557487107144247       0.35442926838811745
0.0032642068691112833     0.32544284967480885      0.3583152358455386
-0.002882881230200264     0.30504203171555155      0.35557189457537675
-0.0249799695363552       0.327847783714239        0.3567842193699919
-0.0175142045814991       0.3310104082430019       0.3577350269189628
-0.06571383298231699      0.25337381967289413      0.3351992661801831
-0.061763773561732085     0.2515527416468822       0.3355004676193516
-0.1014430050131776       0.2975401796634599       0.33620234032710283
-0.09246712742784406      0.3020716597133826       0.3398834641924981
-0.1091603030431066       0.29840779355075275      0.3336748549683074
-0.10405523777466193      0.2887538298010256       0.3335614591976948
-0.10834846351420574      0.30749357086719215      0.3355121184474739
-0.10849453056740567      0.3068347025230131       0.3353564199933091
-0.11051044624067985      0.2894054956530601       0.3313968595301791
-0.11645933597411229      0.2976961603062548       0.3308147100001615
-0.11517227905896638      0.2850266465722247       0.32867853346387216
-0.12421707252323605      0.28129219895618823      0.32416966548174825
-0.12237374266559056      0.27686717483403         0.3238322215669784
-0.12684187852874781      0.27766879701945946      0.32215643117567544
-0.129993240935706        0.27531591399993416      0.3201740711870006
0.1456428367311136        0.13045961431337902      0.2428468222873827
0.15256944509314707       0.13549674822002392      0.24362288072033086
0.15913384273476366       0.14271499008888827      0.24625635240003826
0.16414348077902144       0.13822441282864842      0.23909391779329262
0.14933411823519915       0.1293727409094674       0.23972833380325428
0.15445259446593493       0.1292869121528597       0.23662501332378422
0.29685884826943243       0.2336887388941831       0.1794544322950774
0.2965539163407912        0.2425309588454377       0.18582604758873159
0.2910554411274795        0.23021616746181411      0.18599882486234437
0.3018900154693287        0.24585774999330484      0.1795239224110294
0.2955000056976031        0.22530671970546567      0.1754772419174465
0.2897446675794991        0.21390570706261183      0.17558866730443162
0.3218874191927723        0.26907975122840416      0.15800403386604014
0.3178111077435694        0.27776280198222963      0.17024024429953558
0.314895766443389         0.26137611331262695      0.16673447858934048
0.298212888863784         0.2723505862308783       0.19922741545025505
0.3052987768221662        0.28111547094805056      0.19244103386567388
0.2931429557865424        0.28437261337788317      0.21103212111262928
0.2884288708522629        0.2757206801814764       0.21398062484157085
0.2943739081114531        0.2611365564684116       0.1994755607696283
0.31691899667012524       0.25377035121656444      0.15815122535430556
0.3244277913348257        0.26295606188840887      0.149102440207859
0.32036998409262146       0.2427337461168541       0.1429228908084044
0.3270086928552681        0.24432260854061946      0.12903357825618017
0.32219994809533026       0.23109223285728953      0.12817811585511193
0.3094735441142544        0.23658573928168689      0.15988864636771813
0.30932987115484883       0.25020293746804567      0.16977155921477097
0.3050801960057178        0.2630061415711816       0.18434041918098498
0.23910189357445807       0.14761605983746856      0.18087703092910284
0.23072642106363653       0.1432631589488999       0.1859959631574225
0.23435045503368535       0.1383335495036898       0.17558866730443196
0.31632635432131556       0.19647012955973092      0.0996511473663362
0.3132449763633257        0.1978963745115855       0.11074482204953864
0.3098269554234406        0.18489933538868086      0.09968446614528141
0.3042471770050639        0.18199103989047993      0.11050092960756314
0.300284739375986         0.16949305648756385      0.09956529374662543
0.29032926247067675       0.16385947254469993      0.11571603630526887
0.29431731173028175       0.17634401139263914      0.12604639226837577
0.28325865550911145       0.14763899935206876      0.10326247365000597
0.26154322480472536       0.12578823945675957      0.11067087596130662
0.2636416010690289        0.12310528265127149      0.09965114736633643
0.27184406081541795       0.1354565080368252       0.1068672699883129
0.25238520601108977       0.11640305071491197      0.11074578055094692
-0.19395227501330373      0.37059981313595464      0.29559376586546066
-0.1979911196957719       0.36249451542110944      0.29293186889414713
-0.1919513606717961       0.37029624391104843      0.2969843195405975
-0.2019700431413068       0.36649971331305425      0.2899833019057411
-0.2062684165614645       0.357339397188463        0.28683681190082205
-0.25158869030658515      0.3557313600565879       0.2459376490956955
-0.25220432138816445      0.3478756250848839       0.24501905345457117
-0.2435499400468622       0.3508348805991864       0.2541329833896825
-0.2723925267399088       0.428851217419706        0.2106466268393276
-0.2669040019026238       0.4344367434142025       0.2159973558646043
-0.2742625609759296       0.43640846337535155      0.20544504213457687
-0.26859797204679037      0.427511583823438        0.21608790851888318
-0.26345956219365735      0.4272153425321116       0.2226759389802894
-0.2591041698339862       0.43234678471031274      0.22636702903404382
-0.23935881347805718      0.42025367872228525      0.2512751794734092
-0.23110824195202379      0.4248452984429808       0.2581330131539637
-0.23927213279610704      0.4270328064017489       0.24963596716706293
-0.2484907308968104       0.36114842127764585      0.24923979813770356
-0.25443493923894445      0.35999443748969634      0.24289423570431648
-0.25218163060057647      0.3624980768133722       0.2453232288484011
-0.249390297735954        0.3675114995194577       0.24818443998576295
-0.24914434810736308      0.4296780585219061       0.23855800789960208
-0.2499145796880723       0.4186199373435167       0.2406854423392532
-0.2569243955820458       0.42374955645180257      0.23149190853134605
-0.2611523581269385       0.41409746360705313      0.22900200614557806
-0.2513856069129502       0.4033549849318238       0.24232008429623633
-0.24302473853175377      0.3994504596661306       0.25172770875757133
-0.24526938709739976      0.38373374462911175      0.2514293295822861
-0.25368351447328996      0.38233410841009147      0.24267718903473418
-0.24674721674938388      0.410591048680032        0.24587255555351034
-0.26848531826494854      0.42279988112049094      0.21765152407721897
-0.27119702279557656      0.4229894575995501       0.21406368271778223
-0.24263258715973396      0.3660683654373412       0.25513498225774867
-0.24777533589168338      0.3782630673506524       0.2493097431523882
-0.24973980519457883      0.37359011065281633      0.24755479758926238
-0.2474881025456927       0.3728529572395632       0.24994757117521482
-0.24450072030613304      0.38071818679797514      0.2524785441423232
-0.177393431674112        0.3993076946585262       0.30407396647228635
-0.1746758169467252       0.4097242757358812       0.3042195284426204
-0.2883532941564426       0.4248230370886382       0.18867723825735389
-0.29353075408422324      0.40704220753194215      0.18564012078543982
-0.28279224419839594      0.4161420406086231       0.19988436318043773
-0.28210004648577736      0.4385085112884058       0.19324432849881124
-0.2882348568931725       0.44015232878278543      0.1828768955311646
-0.2923091487985619       0.4412440320085631       0.1755268578644785
-0.29272184596383416      0.43027657876057         0.17950862219882596
-0.31991433373910194      0.43953575019130703      0.11643622918465898
-0.3179183315715556       0.43706346693684905      0.1235459208307644
-0.3147676811445465       0.439329082214173        0.1302828809168498
-0.3202573640228674       0.4487327337078071       0.10853663043121066
-0.3203764746145175       0.4433388876896659       0.11238609367658922
-0.3226866940941491       0.43724393873232187      0.10987625755682941
-0.3228398832457494       0.44942471764801595      0.09968599613495069
-0.3231720501249687       0.44115043580408764      0.10549207926156744
0.10784855765208574       0.18035870531731163      0.2968207103014476
0.1011102934616567        0.17691691967615178      0.29683323871720374
0.10385906960519944       0.17857658299196236      0.29700761768922673
0.06958966969201709       0.17092260898255995      0.300907680569027
0.07689755900760946       0.1738619731938085       0.30123584502303336
0.06935468780176673       0.17607925853179585      0.30412975439798845
0.07899469223459772       0.17883362919131937      0.30379042703500936
0.08155635732776344       0.17455601448259986      0.30061327123751647
0.08193280261494829       0.17869536908946992      0.3030386672420606
0.021964304303949748      0.15670030661588105      0.29706443687383494
0.025735903944648003      0.15676302924557972      0.29694864467235216
0.021423987009209503      0.16037404037235123      0.2995626794638609
-0.07016227045421233      0.214875268692751        0.31932813389623826
-0.07138074354232202      0.2155790263388479       0.3193335583967444
-0.0717069179216113       0.2122045992194578       0.31770206908706533
-0.06930322516443273      0.21392838949352574      0.31911482841702776
-0.06904075213935383      0.21494963407123882      0.31964605824065945
-0.06691425511026039      0.20624511182976046      0.3160888550593268
-0.04561415571936956      0.16697753391496173      0.2986388529983185
-0.04324624807486795      0.16064307885830745      0.2948989351096186
-0.037346018040884096     0.16572514766553467      0.2992893116079907
0.14627207822225197       0.16934125820317292      0.2741053113175556
0.14483928039982175       0.1707400018808063       0.2757704821836037
0.14385633159854086       0.16678534259432667      0.2734944624935823
0.20859892596656163       0.1901266712864304       0.24883668474103668
0.2590253917346136        0.26232235531024467      0.24245095790845034
0.2636898811690978        0.2670869670924078       0.23949344287119684
0.28234313490857427       0.2872664166605356       0.2256836273375577
0.27255012566392206       0.26993332898354844      0.23092684820155576
0.2672711790014319        0.27934363413208474      0.24012765027872895
0.2723431736269762        0.28994589821028227      0.23798069897816213
0.2729330463510069        0.2822815933250609       0.23493800654058672
0.26297612556161676       0.29245579117485876      0.2485582867462445
0.20507380867017477       0.30797067022581165      0.2990301345276615
0.19738243470268949       0.3100315676690851       0.3042195284426204
0.20060311689110885       0.3008718638718625       0.30057247288742556
0.20737897631742622       0.30415555412039214      0.29683323871720396
0.20994326660179963       0.3067048982403415       0.2955937658654604
0.2038034273074737        0.2941697298525945       0.29713027692472144
0.19694731260396509       0.28978797817316293      0.3004717653098118
0.2081042615709655        0.18696311609973604      0.24704361713905026
0.2107229687133445        0.18349683457071467      0.2424509579084503
0.20524808228929164       0.18329287810165706      0.24670540199121982
0.20526585895833388       0.17773694743049684      0.24261822799083949
0.2145914325548266        0.12777228456615555      0.1856401207854401
0.21881915227274168       0.1235445648482402       0.17534390326978522
0.23921919009924328       0.15206349399308156      0.18582604758873172
0.21673574821928965       0.1863787557583996       0.2394934428711968
0.23971003013250983       0.19887464037595715      0.22709506249883887
0.22632476870486976       0.18601589590818865      0.23065186655316178
0.24293569805841472       0.1860305594410116       0.2139806248415707
0.2505819302238124        0.1948943813381839       0.21258201779363428
0.2527950242365751        0.20504017338850877      0.2176515240772187
0.24968635277108606       0.21361804970934278      0.22681804633569577
0.2577389233089557        0.20288062146380803      0.21044475016169112
0.25916008039376665       0.19638517612038622      0.20372270929950229
0.2669902298060911        0.2058809841072122       0.20143416790303253
0.16765155154617517       0.2377405310872857       0.3004901550865242