% Model:              Box_wing_Ray_Matlab_test.mph
% Version:            COMSOL 6.0.0.405
% Date:               Oct 4 2022, 22:40
% Dimension:          3
% Nodes:              469
% Elements:           840
% Expressions:        1
% Description:        Material settings
% Length unit:        m
% Coordinates
-0.06                     -0.0581071009566951      -0.01
-0.048                    -0.05810710095669509     -0.01
-0.059999999999999984     -0.05810710095669509     0.0010000000000000135
-0.04799999999999997      -0.05810710095669509     0.0010000000000000148
-0.036000000000000004     -0.05810710095669509     -0.01
-0.036000000000000004     -0.05810710095669509     0.0010000000000000148
-0.024000000000000007     -0.05810710095669509     -0.01
-0.02399999999999998      -0.05810710095669509     0.0010000000000000148
-0.06                     -0.05810710095669511     0.01200000000000001
-0.048                    -0.05810710095669509     0.01200000000000001
-0.036000000000000004     -0.05810710095669509     0.01200000000000001
-0.01200000000000001      -0.05810710095669509     -0.01
-0.01200000000000001      -0.05810710095669509     0.0010000000000000148
3.2526065174565133E-18    -0.05810710095669509     -0.009999999999999998
0                         -0.05810710095669509     0.0010000000000000148
-0.023999999999999966     -0.05810710095669509     0.01200000000000001
-0.01200000000000001      -0.05810710095669509     0.01200000000000001
-0.06                     -0.05810710095669511     0.023000000000000007
-0.048                    -0.05810710095669509     0.023000000000000007
-0.036000000000000004     -0.05810710095669509     0.023000000000000007
-0.023999999999999994     -0.05810710095669509     0.023000000000000007
-0.01200000000000001      -0.05810710095669509     0.023000000000000007
0.012000000000000004      -0.0581071009566951      -0.01
0.01200000000000001       -0.05810710095669511     0.0010000000000000148
0                         -0.05810710095669509     0.01200000000000001
0.012000000000000004      -0.05810710095669511     0.01200000000000001
0                         -0.05810710095669509     0.023000000000000007
-0.06                     -0.0581071009566951      0.034
-0.048000000000000015     -0.05810710095669509     0.034000000000000016
-0.059999999999999984     -0.05810710095669509     0.045
-0.04799999999999999      -0.05810710095669509     0.04499999999999999
-0.036000000000000004     -0.05810710095669509     0.03399999999999999
-0.023999999999999994     -0.05810710095669509     0.034
-0.01200000000000001      -0.05810710095669509     0.034000000000000016
-0.06                     -0.0581071009566951      0.05600000000000001
-0.048                    -0.05810710095669509     0.05600000000000002
-0.06                     -0.05810710095669511     0.067
-0.048000000000000015     -0.05810710095669509     0.067
-0.035999999999999976     -0.05810710095669509     0.045
-0.036000000000000004     -0.05810710095669509     0.055999999999999994
-0.023999999999999994     -0.05810710095669509     0.04499999999999999
-0.05999999999999999      -0.05810710095669511     0.078
-0.04799999999999997      -0.05810710095669509     0.078
-0.035999999999999976     -0.05810710095669509     0.06699999999999999
-0.023999999999999994     -0.05810710095669509     0.05600000000000001
-0.035999999999999976     -0.05810710095669509     0.07799999999999999
-0.01200000000000001      -0.05810710095669509     0.045
0.01200000000000001       -0.05810710095669511     0.023000000000000007
0.023999999999999997      -0.0581071009566951      -0.01
0.023999999999999994      -0.05810710095669511     0.0010000000000000148
0.036000000000000004      -0.0581071009566951      -0.01
0.036                     -0.05810710095669511     0.0010000000000000425
0.023999999999999994      -0.05810710095669511     0.01200000000000001
0.036000000000000004      -0.05810710095669511     0.01200000000000001
0.04800000000000001       -0.0581071009566951      -0.01
0.047999999999999994      -0.05810710095669511     0.0010000000000000286
0.06                      -0.0581071009566951      -0.01
0.059999999999999984      -0.05810710095669509     0.0010000000000000135
0                         -0.05810710095669509     0.034000000000000016
0.01200000000000001       -0.05810710095669511     0.033999999999999975
-0.01200000000000001      -0.05810710095669509     0.05600000000000001
-0.06                     -0.0581071009566951      0.089
-0.048                    -0.05810710095669509     0.089
-0.06                     -0.0581071009566951      0.1
-0.048                    -0.05810710095669509     0.1
-0.03599999999999999      -0.05810710095669509     0.08899999999999998
-0.03599999999999999      -0.058107100956695086    0.09999999999999999
-0.023999999999999994     -0.05810710095669509     0.067
-0.02399999999999998      -0.05810710095669509     0.078
0                         -0.05810710095669509     0.04499999999999999
0.01200000000000001       -0.05810710095669511     0.045
0.023999999999999994      -0.05810710095669511     0.023000000000000007
0.036000000000000004      -0.05810710095669511     0.022999999999999993
0.023999999999999994      -0.05810710095669511     0.033999999999999975
0.023999999999999994      -0.05810710095669511     0.04500000000000001
0.036                     -0.05810710095669511     0.034000000000000016
0.04800000000000001       -0.05810710095669511     0.01200000000000001
0.048                     -0.05810710095669511     0.023000000000000034
0.06                      -0.05810710095669511     0.01200000000000001
0.06                      -0.05810710095669511     0.023000000000000007
0                         -0.05810710095669509     0.05600000000000002
-0.01200000000000001      -0.05810710095669509     0.067
-0.011999999999999997     -0.05810710095669509     0.078
-0.023999999999999994     -0.05810710095669509     0.089
-0.023999999999999994     -0.05810710095669509     0.1
-0.011999999999999997     -0.05810710095669509     0.089
-0.012                    -0.0581071009566951      0.1
0.01200000000000001       -0.05810710095669511     0.05600000000000002
0.03599999999999999       -0.05810710095669511     0.045000000000000005
0.023999999999999994      -0.05810710095669511     0.055999999999999994
0.036                     -0.05810710095669511     0.05600000000000002
0.048                     -0.05810710095669511     0.034000000000000016
0.06                      -0.0581071009566951      0.034
0.04799999999999999       -0.05810710095669511     0.04499999999999999
0.059999999999999984      -0.05810710095669509     0.045
0                         -0.05810710095669509     0.067
0                         -0.05810710095669509     0.078
0.01200000000000001       -0.05810710095669511     0.06699999999999999
0.023999999999999994      -0.05810710095669511     0.06699999999999999
0                         -0.05810710095669509     0.089
0.01200000000000001       -0.05810710095669511     0.07799999999999999
-2.6020852139652106E-18   -0.05810710095669509     0.1
0.023999999999999994      -0.05810710095669511     0.078
0.036                     -0.05810710095669511     0.067
0.047999999999999994      -0.05810710095669511     0.055999999999999994
0.047999999999999994      -0.05810710095669511     0.067
0.06                      -0.0581071009566951      0.05600000000000001
0.01200000000000001       -0.05810710095669511     0.089
0.012000000000000004      -0.05810710095669511     0.1
0.023999999999999994      -0.05810710095669511     0.089
0.023999999999999997      -0.05810710095669511     0.1
0.03599999999999999       -0.05810710095669511     0.078
0.04799999999999999       -0.05810710095669511     0.078
0.06                      -0.05810710095669511     0.067
0.05999999999999999       -0.05810710095669511     0.078
0.03599999999999999       -0.05810710095669511     0.089
0.04799999999999999       -0.05810710095669511     0.089
0.06                      -0.0581071009566951      0.089
0.03599999999999999       -0.0581071009566951      0.1
0.04799999999999999       -0.05810710095669509     0.1
0.06                      -0.0581071009566951      0.1
-0.06                     -0.0461071009566951      -0.01
-0.048                    -0.04610710095669509     -0.01
-0.06                     -0.034107100956695106    -0.01
-0.048                    -0.03410710095669509     -0.01
-0.036000000000000004     -0.04610710095669509     -0.01
-0.06                     -0.022107100956695103    -0.01
-0.048                    -0.022107100956695096    -0.01
-0.036000000000000004     -0.034107100956695106    -0.01
-0.024                    -0.04610710095669509     -0.01
-0.036000000000000004     -0.022107100956695103    -0.01
-0.06                     -0.010107100956695104    -0.01
-0.048                    -0.010107100956695099    -0.01
-0.06                     0.0018928990433048941    -0.009999999999999998
-0.048                    0.0018928990433048996    -0.01
-0.036000000000000004     -0.010107100956695106    -0.01
-0.024000000000000007     -0.0341071009566951      -0.01
-0.024000000000000007     -0.0221071009566951      -0.01
-0.01200000000000001      -0.04610710095669509     -0.01
3.469446951953614E-18     -0.046107100956695096    -0.01
-0.060000000000000005     0.013892899043304908     -0.01
-0.048                    0.013892899043304896     -0.01
-0.060000000000000005     0.025892899043304905     -0.01
-0.047999999999999994     0.025892899043304902     -0.01
-0.036000000000000004     0.0018928990433049048    -0.01
-0.036000000000000004     0.013892899043304908     -0.01
-0.024000000000000004     -0.010107100956695104    -0.01
-0.024000000000000004     0.001892899043304896     -0.01
-0.024                    0.013892899043304915     -0.01
-0.012000000000000012     -0.0221071009566951      -0.01
-0.01200000000000001      -0.010107100956695104    -0.01
-0.012000000000000007     -0.0341071009566951      -0.01
0.012000000000000004      -0.04610710095669509     -0.01
3.469446951953614E-18     -0.03410710095669509     -0.01
0.02399999999999999       -0.04610710095669509     -0.01
-0.060000000000000005     0.0378928990433049       -0.01
-0.048                    0.0378928990433049       -0.01
-0.060000000000000005     0.0498928990433049       -0.01
-0.048                    0.0498928990433049       -0.01
-0.06                     0.0618928990433049       -0.01
-0.04800000000000001      0.0618928990433049       -0.01
-0.036000000000000004     0.025892899043304912     -0.01
-0.036000000000000004     0.037892899043304895     -0.01
-0.024                    0.02589289904330489      -0.01
3.469446951953614E-18     -0.022107100956695096    -0.01
-0.012000000000000007     0.0018928990433049048    -0.01
-0.012000000000000007     0.013892899043304902     -0.01
3.469446951953614E-18     -0.010107100956695106    -0.01
0.012000000000000004      -0.03410710095669511     -0.01
0.012000000000000004      -0.02210710095669511     -0.01
0.023999999999999994      -0.03410710095669511     -0.01
0.036000000000000004      -0.04610710095669511     -0.01
-0.024                    0.03789289904330491      -0.01
-0.036000000000000004     0.04989289904330489      -0.01
-0.036000000000000004     0.0618928990433049       -0.01
-0.012000000000000007     0.025892899043304902     -0.01
0                         0.0018928990433049048    -0.01
0.01200000000000001       -0.010107100956695106    -0.01
-3.469446951953614E-18    0.01389289904330491      -0.01
0.023999999999999994      -0.022107100956695096    -0.01
0.023999999999999994      -0.010107100956695106    -0.01
0.048                     -0.04610710095669511     -0.01
0.06                      -0.046107100956695096    -0.01
0.036000000000000004      -0.034107100956695106    -0.01
0.036                     -0.022107100956695117    -0.01
0.047999999999999994      -0.034107100956695106    -0.01
0.04800000000000001       -0.0221071009566951      -0.01
0.06                      -0.0341071009566951      -0.01
0.06                      -0.022107100956695103    -0.01
-0.012000000000000007     0.03789289904330491      -0.01
-0.023999999999999994     0.049892899043304906     -0.01
-0.023999999999999997     0.0618928990433049       -0.01
-0.012000000000000004     0.049892899043304906     -0.01
-0.012000000000000004     0.0618928990433049       -0.01
-3.469446951953614E-18    0.025892899043304912     -0.01
-3.469446951953614E-18    0.0378928990433049       -0.01
0.012000000000000004      0.0018928990433049048    -0.01
0.024000000000000007      0.001892899043304903     -0.01
0.012000000000000002      0.013892899043304905     -0.01
0.024                     0.01389289904330491      -0.01
0.036000000000000004      -0.01010710095669511     -0.01
0.036000000000000004      0.00189289904330491      -0.01
0.048                     -0.01010710095669511     -0.01
0.048000000000000015      0.0018928990433049052    -0.01
0.06                      -0.010107100956695106    -0.01
0.06                      0.0018928990433049087    -0.009999999999999998
-3.469446951953614E-18    0.049892899043304906     -0.01
-3.2526065174565133E-18   0.0618928990433049       -0.009999999999999998
0.012000000000000009      0.049892899043304906     -0.01
0.01200000000000001       0.0618928990433049       -0.01
0.012000000000000007      0.025892899043304912     -0.01
0.012000000000000007      0.037892899043304895     -0.01
0.024000000000000004      0.0258928990433049       -0.01
0.02400000000000001       0.03789289904330491      -0.01
0.036000000000000004      0.013892899043304908     -0.01
0.03600000000000001       0.02589289904330491      -0.01
0.048                     0.013892899043304896     -0.01
0.048                     0.025892899043304902     -0.01
0.06                      0.013892899043304908     -0.01
0.06                      0.025892899043304905     -0.01
0.02400000000000001       0.049892899043304906     -0.01
0.024000000000000007      0.0618928990433049       -0.01
0.036000000000000004      0.03789289904330488      -0.01
0.047999999999999994      0.037892899043304895     -0.01
0.06                      0.0378928990433049       -0.01
0.036000000000000004      0.049892899043304906     -0.01
0.047999999999999994      0.049892899043304906     -0.01
0.036000000000000004      0.0618928990433049       -0.01
0.06                      0.049892899043304906     -0.01
0.048                     0.0618928990433049       -0.01
0.06                      0.0618928990433049       -0.01
0.06                      -0.046107100956695096    0.0010000000000000148
0.06                      -0.04610710095669507     0.01200000000000001
0.06                      -0.0341071009566951      0.0010000000000000148
0.06                      -0.04610710095669507     0.023000000000000007
0.06                      -0.04610710095669508     0.03399999999999999
0.06                      -0.022107100956695117    0.0010000000000000009
0.06                      -0.0341071009566951      0.01200000000000001
0.06                      -0.02210710095669506     0.01200000000000001
0.06                      -0.0341071009566951      0.022999999999999993
0.06                      -0.04610710095669508     0.045
0.06                      -0.0341071009566951      0.03399999999999999
0.06                      -0.010107100956695106    0.0010000000000000009
0.06                      0.0018928990433049048    0.0010000000000000286
0.06                      -0.010107100956695106    0.01200000000000001
0.06                      0.0018928990433049048    0.01200000000000001
0.06                      -0.02210710095669509     0.022999999999999993
0.06                      -0.02210710095669506     0.034
0.06                      0.013892899043304902     0.0010000000000000148
0.06                      0.0258928990433049       0.0010000000000000148
0.06                      0.037892899043304895     0.0010000000000000009
0.06                      -0.04610710095669508     0.05600000000000001
0.06                      -0.04610710095669508     0.067
0.06                      -0.04610710095669508     0.078
0.06                      -0.0341071009566951      0.045
0.06                      -0.0341071009566951      0.055999999999999994
0.06                      -0.02210710095669509     0.04500000000000001
0.06                      -0.02210710095669509     0.05600000000000001
0.06                      0.013892899043304915     0.01200000000000001
0.06                      0.0258928990433049       0.01200000000000001
0.06                      -0.010107100956695106    0.023000000000000007
0.06                      0.0018928990433049048    0.022999999999999993
0.06                      -0.010107100956695106    0.034
0.06                      0.0018928990433049048    0.034
0.06                      -0.04610710095669508     0.089
0.06                      -0.04610710095669509     0.1
0.06                      0.04989289904330489      0.0010000000000000148
0.059999999999999984      0.06189289904330489      0.0010000000000000135
0.06                      0.037892899043304895     0.01200000000000001
0.06                      0.0258928990433049       0.023000000000000007
0.06                      0.0378928990433049       0.023000000000000007
0.06                      -0.0341071009566951      0.067
0.06                      -0.0341071009566951      0.07799999999999999
0.06                      -0.02210710095669509     0.067
0.06                      -0.022107100956695075    0.078
0.06                      -0.010107100956695106    0.045
0.06                      -0.010107100956695106    0.05600000000000001
0.06                      0.013892899043304915     0.023000000000000007
0.06                      0.013892899043304902     0.033999999999999975
0.06                      0.0258928990433049       0.033999999999999975
0.06                      0.0018928990433049048    0.044999999999999984
0.06                      0.0018928990433049048    0.05600000000000002
0.06                      -0.034107100956695086    0.08899999999999998
0.059999999999999984      -0.034107100956695086    0.09999999999999999
0.06                      -0.02210710095669509     0.089
0.06                      -0.02210710095669509     0.1
0.06                      0.0498928990433049       0.01200000000000001
0.06                      0.0618928990433049       0.01200000000000001
0.06                      0.049892899043304906     0.023000000000000034
0.06                      0.0618928990433049       0.023000000000000007
0.06                      0.037892899043304895     0.03399999999999999
0.06                      -0.010107100956695106    0.067
0.06                      -0.010107100956695106    0.07799999999999999
0.06                      0.0018928990433049048    0.067
0.06                      0.013892899043304902     0.04500000000000001
0.06                      0.0258928990433049       0.04500000000000001
0.06                      0.013892899043304915     0.05600000000000002
0.06                      0.0258928990433049       0.055999999999999994
0.06                      0.0018928990433049048    0.078
0.06                      -0.010107100956695092    0.089
0.060000000000000005      -0.010107100956695094    0.1
0.06                      0.0018928990433049048    0.089
0.06                      0.0498928990433049       0.034000000000000016
0.06                      0.0618928990433049       0.034
0.06                      0.03789289904330489      0.04499999999999999
0.06                      0.04989289904330489      0.04499999999999999
0.06                      0.037892899043304895     0.05600000000000002
0.06                      0.013892899043304915     0.06699999999999999
0.06                      0.0258928990433049       0.06699999999999999
0.06                      0.013892899043304915     0.07799999999999999
0.06                      0.013892899043304915     0.089
0.06                      0.0018928990433049022    0.1
0.060000000000000005      0.01389289904330491      0.1
0.06                      0.0498928990433049       0.055999999999999994
0.059999999999999984      0.06189289904330489      0.045
0.06                      0.037892899043304895     0.067
0.06                      0.0618928990433049       0.05600000000000001
0.06                      0.0258928990433049       0.078
0.06                      0.0258928990433049       0.089
0.06                      0.037892899043304895     0.078
0.06                      0.025892899043304902     0.1
0.06                      0.0498928990433049       0.067
0.06                      0.037892899043304895     0.089
0.06                      0.04989289904330489      0.078
0.06                      0.0618928990433049       0.067
0.06                      0.037892899043304895     0.1
0.06                      0.04989289904330489      0.089
0.05999999999999999       0.061892899043304896     0.078
0.06                      0.04989289904330489      0.1
0.06                      0.0618928990433049       0.089
0.06                      0.0618928990433049       0.1
-0.060000000000000005     -0.023107100956695097    -3.1540426835941958E-18
-0.06                     -0.0481071009566951      0
-0.06                     0.0018928990433049054    -6.308085367188391E-18
-0.06                     -0.0481071009566951      0.020000000000000004
-0.06                     -0.0481071009566951      0.04000000000000001
-0.06                     0.026892899043304917     -9.462128050782588E-18
-0.06                     -0.0481071009566951      0.06
-0.06                     0.0518928990433049       -1.845114969902605E-17
-0.06                     -0.0481071009566951      0.08
-0.06                     -0.0481071009566951      0.1
-0.03799999999999999      -0.04810710095669509     0.1
-0.016                    -0.04810710095669509     0.1
0.006000000000000011      -0.04810710095669509     0.1
0.028000000000000008      -0.04810710095669509     0.1
0.05                      -0.0481071009566951      0.1
0.05000000000000002       -0.026107100956695103    0.1
0.05000000000000001       -0.004107100956695106    0.1
0.05000000000000001       0.017892899043304898     0.1
0.05                      0.0398928990433049       0.1
0.05                      0.0618928990433049       0.1
-0.05                     0.0618928990433049       -1.387778780781446E-17
-0.03                     0.0618928990433049       0
-0.010000000000000002     0.06189289904330491      0
0.009999999999999995      0.06189289904330491      0
0.03                      0.061892899043304916     0
0.05                      0.0618928990433049       0
0.05                      0.0618928990433049       0.02
0.05000000000000001       0.0618928990433049       0.04
0.05000000000000001       0.0618928990433049       0.06
0.05000000000000002       0.0618928990433049       0.08
-0.06                     -0.0481071009566951      0
-0.06                     -0.0481071009566951      0.020000000000000004
-0.03799999999999999      -0.04810710095669509     0
-0.03799999999999999      -0.04810710095669509     0.01999999999999999
-0.016                    -0.04810710095669509     0
-0.016                    -0.04810710095669509     0.01999999999999999
-0.06                     -0.0481071009566951      0.04000000000000001
-0.03799999999999999      -0.04810710095669509     0.04000000000000001
0.006000000000000011      -0.04810710095669509     0
0.006000000000000012      -0.0481071009566951      0.020000000000000004
-0.06                     -0.0481071009566951      0.06
-0.03799999999999999      -0.04810710095669509     0.06
-0.016                    -0.04810710095669509     0.04000000000000001
-0.06                     -0.0481071009566951      0.08
-0.03799999999999999      -0.04810710095669509     0.08
0.028000000000000008      -0.04810710095669509     0
0.02800000000000001       -0.0481071009566951      0.020000000000000004
0.006000000000000012      -0.0481071009566951      0.04000000000000001
-0.016                    -0.04810710095669509     0.06
-0.06                     -0.0481071009566951      0.1
-0.03799999999999999      -0.04810710095669509     0.1
-0.016                    -0.04810710095669509     0.08
0.02800000000000001       -0.0481071009566951      0.04000000000000001
0.05                      -0.0481071009566951      0
0.05                      -0.0481071009566951      0.020000000000000004
0.006000000000000005      -0.0481071009566951      0.06
-0.016                    -0.04810710095669509     0.1
0.006000000000000012      -0.0481071009566951      0.08
0.028000000000000004      -0.0481071009566951      0.06
0.05                      -0.0481071009566951      0.04000000000000001
0.006000000000000011      -0.04810710095669509     0.1
0.02800000000000001       -0.0481071009566951      0.08
0.05                      -0.0481071009566951      0.06
0.028000000000000008      -0.04810710095669509     0.1
0.05                      -0.0481071009566951      0.08
0.05                      -0.0481071009566951      0.1
-0.03799999999999999      -0.0237071009566951      0
-0.060000000000000005     -0.023107100956695097    -3.1540426835941958E-18
-0.03799999999999999      -0.04810710095669509     0
-0.06                     -0.0481071009566951      0
-0.03799999999999999      6.928990433049099E-4     0
-0.06                     0.0018928990433049054    -6.308085367188391E-18
-0.015999999999999997     -0.02430710095669511     0
-0.016                    -0.04810710095669509     0
-0.03799999999999999      0.025092899043304907     0
-0.06                     0.026892899043304917     -9.462128050782588E-18
-0.016                    -5.07100956695092E-4     0
0.006000000000000015      -0.02490710095669509     0
0.006000000000000011      -0.04810710095669509     0
-0.038                    0.0494928990433049       0
-0.06                     0.0518928990433049       -1.845114969902605E-17
-0.015999999999999997     0.023292899043304914     0
0.0060000000000000105     -0.0017071009566950969   0
0.028000000000000004      -0.025507100956695096    0
0.028000000000000008      -0.04810710095669509     0
-0.05                     0.0618928990433049       -1.387778780781446E-17
-0.03                     0.0618928990433049       0
-0.016                    0.0470928990433049       0
0.006                     0.021492899043304908     0
0.02800000000000001       -0.0029071009566950983   0
0.05000000000000002       -0.026107100956695103    0
0.05                      -0.0481071009566951      0
-0.010000000000000002     0.06189289904330491      0
0.006000000000000002      0.04469289904330491      0
0.027999999999999997      0.019692899043304908     0
0.05000000000000001       -0.004107100956695106    0
0.009999999999999995      0.06189289904330491      0
0.02800000000000001       0.042292899043304896     0
0.05000000000000001       0.017892899043304898     0
0.03                      0.061892899043304916     0
0.05                      0.0398928990433049       0
0.05                      0.0618928990433049       0
0.05                      -0.0481071009566951      0
0.05                      -0.0481071009566951      0.020000000000000004
0.05000000000000002       -0.026107100956695103    0
0.05000000000000002       -0.026107100956695085    0.01999999999999999
0.05                      -0.0481071009566951      0.04000000000000001
0.05000000000000002       -0.026107100956695085    0.04000000000000001
0.05000000000000001       -0.004107100956695106    0
0.05000000000000002       -0.0041071009566951006   0.020000000000000004
0.05                      -0.0481071009566951      0.06
0.05000000000000002       -0.026107100956695085    0.06
0.05000000000000001       0.017892899043304898     0
0.05000000000000002       0.017892899043304898     0.01999999999999999
0.05000000000000002       -0.0041071009566951075   0.04000000000000001
0.05                      0.0398928990433049       0
0.05                      0.0398928990433049       0.019999999999999962
0.05                      -0.0481071009566951      0.08
0.05000000000000002       -0.026107100956695085    0.08
0.05000000000000002       -0.0041071009566951075   0.06
0.05000000000000002       0.017892899043304898     0.04000000000000001
0.05                      -0.0481071009566951      0.1
0.05000000000000002       -0.026107100956695103    0.1
0.05                      0.0618928990433049       0
0.05                      0.0618928990433049       0.02
0.05                      0.0398928990433049       0.04000000000000001
0.05000000000000002       -0.0041071009566951075   0.08
0.05000000000000002       0.017892899043304898     0.06
0.05000000000000001       -0.004107100956695106    0.1
0.05000000000000001       0.0618928990433049       0.04
0.05                      0.0398928990433049       0.06
0.05000000000000002       0.017892899043304898     0.08
0.05000000000000001       0.017892899043304898     0.1
0.05000000000000001       0.0618928990433049       0.06
0.05                      0.0398928990433049       0.08
0.05                      0.0398928990433049       0.1
0.05000000000000002       0.0618928990433049       0.08
0.05                      0.0618928990433049       0.1
% Elements (triangles)
1          2         4
1          4         3
2          5         6
2          6         4
5          7         8
5          8         6
3          4         10
3          10        9
4          6         11
4          11        10
7          12        13
7          13        8
12         14        15
12         15        13
6          8         16
6          16        11
8          13        17
8          17        16
9          10        19
9          19        18
10         11        20
10         20        19
11         16        21
11         21        20
16         17        22
16         22        21
14         23        24
14         24        15
13         15        25
13         25        17
15         24        26
15         26        25
17         25        27
17         27        22
18         19        29