% Model:              Box_wing_Ray_Matlab_test.mph
% Version:            COMSOL 6.0.0.405
% Date:               Oct 4 2022, 11:57
% Dimension:          3
% Nodes:              1232
% Elements:           2186
% Expressions:        1
% Description:        Material settings
% Length unit:        m
% Coordinates
-0.06                     -0.0581071009566951      -0.01
-0.048                    -0.05810710095669509     -0.01
-0.059999999999999984     -0.05810710095669509     0.0010000000000000135
-0.04799999999999997      -0.05810710095669509     0.0010000000000000148
-0.06                     -0.05810710095669511     0.01200000000000001
-0.048                    -0.05810710095669509     0.01200000000000001
-0.036000000000000004     -0.05810710095669509     -0.01
-0.036000000000000004     -0.05810710095669509     0.0010000000000000148
-0.06                     -0.05810710095669511     0.023000000000000007
-0.048                    -0.05810710095669509     0.023000000000000007
-0.036000000000000004     -0.05810710095669509     0.01200000000000001
-0.06                     -0.0581071009566951      0.034
-0.048000000000000015     -0.05810710095669509     0.034000000000000016
-0.024000000000000007     -0.05810710095669509     -0.01
-0.02399999999999998      -0.05810710095669509     0.0010000000000000148
-0.059999999999999984     -0.05810710095669509     0.045
-0.04799999999999999      -0.05810710095669509     0.04499999999999999
-0.036000000000000004     -0.05810710095669509     0.023000000000000007
-0.023999999999999966     -0.05810710095669509     0.01200000000000001
-0.036000000000000004     -0.05810710095669509     0.03399999999999999
-0.01200000000000001      -0.05810710095669509     -0.01
-0.01200000000000001      -0.05810710095669509     0.0010000000000000148
-0.06                     -0.0581071009566951      0.05600000000000001
-0.048                    -0.05810710095669509     0.05600000000000002
-0.035999999999999976     -0.05810710095669509     0.045
-0.06                     -0.05810710095669511     0.067
-0.048000000000000015     -0.05810710095669509     0.067
-0.05999999999999999      -0.05810710095669511     0.078
-0.04799999999999997      -0.05810710095669509     0.078
-0.06                     -0.0581071009566951      0.089
-0.048                    -0.05810710095669509     0.089
-0.06                     -0.0581071009566951      0.1
-0.048                    -0.05810710095669509     0.1
-0.023999999999999994     -0.05810710095669509     0.023000000000000007
-0.01200000000000001      -0.05810710095669509     0.01200000000000001
-0.023999999999999994     -0.05810710095669509     0.034
3.2526065174565133E-18    -0.05810710095669509     -0.009999999999999998
0                         -0.05810710095669509     0.0010000000000000148
-0.036000000000000004     -0.05810710095669509     0.055999999999999994
-0.023999999999999994     -0.05810710095669509     0.04499999999999999
-0.035999999999999976     -0.05810710095669509     0.06699999999999999
-0.035999999999999976     -0.05810710095669509     0.07799999999999999
-0.03599999999999999      -0.05810710095669509     0.08899999999999998
-0.03599999999999999      -0.058107100956695086    0.09999999999999999
-0.01200000000000001      -0.05810710095669509     0.023000000000000007
0                         -0.05810710095669509     0.01200000000000001
-0.01200000000000001      -0.05810710095669509     0.034000000000000016
0.012000000000000004      -0.0581071009566951      -0.01
0.01200000000000001       -0.05810710095669511     0.0010000000000000148
-0.023999999999999994     -0.05810710095669509     0.05600000000000001
-0.01200000000000001      -0.05810710095669509     0.045
-0.023999999999999994     -0.05810710095669509     0.067
-0.02399999999999998      -0.05810710095669509     0.078
-0.023999999999999994     -0.05810710095669509     0.089
-0.023999999999999994     -0.05810710095669509     0.1
0                         -0.05810710095669509     0.023000000000000007
0.012000000000000004      -0.05810710095669511     0.01200000000000001
0                         -0.05810710095669509     0.034000000000000016
0.023999999999999997      -0.0581071009566951      -0.01
0.023999999999999994      -0.05810710095669511     0.0010000000000000148
0.023999999999999994      -0.05810710095669511     0.01200000000000001
-0.01200000000000001      -0.05810710095669509     0.05600000000000001
0                         -0.05810710095669509     0.04499999999999999
-0.01200000000000001      -0.05810710095669509     0.067
-0.011999999999999997     -0.05810710095669509     0.078
-0.011999999999999997     -0.05810710095669509     0.089
-0.012                    -0.0581071009566951      0.1
0.01200000000000001       -0.05810710095669511     0.023000000000000007
0.01200000000000001       -0.05810710095669511     0.033999999999999975
0.036000000000000004      -0.0581071009566951      -0.01
0.036                     -0.05810710095669511     0.0010000000000000425
0.023999999999999994      -0.05810710095669511     0.023000000000000007
0.04800000000000001       -0.0581071009566951      -0.01
0.047999999999999994      -0.05810710095669511     0.0010000000000000286
0.036000000000000004      -0.05810710095669511     0.01200000000000001
0.06                      -0.0581071009566951      -0.01
0.059999999999999984      -0.05810710095669509     0.0010000000000000135
0                         -0.05810710095669509     0.05600000000000002
0.01200000000000001       -0.05810710095669511     0.045
0                         -0.05810710095669509     0.067
0                         -0.05810710095669509     0.078
0                         -0.05810710095669509     0.089
-2.6020852139652106E-18   -0.05810710095669509     0.1
0.023999999999999994      -0.05810710095669511     0.033999999999999975
0.036000000000000004      -0.05810710095669511     0.022999999999999993
0.04800000000000001       -0.05810710095669511     0.01200000000000001
0.06                      -0.05810710095669511     0.01200000000000001
0.01200000000000001       -0.05810710095669511     0.05600000000000002
0.023999999999999994      -0.05810710095669511     0.04500000000000001
0.01200000000000001       -0.05810710095669511     0.06699999999999999
0.01200000000000001       -0.05810710095669511     0.07799999999999999
0.01200000000000001       -0.05810710095669511     0.089
0.012000000000000004      -0.05810710095669511     0.1
0.036                     -0.05810710095669511     0.034000000000000016
0.048                     -0.05810710095669511     0.023000000000000034
0.06                      -0.05810710095669511     0.023000000000000007
0.03599999999999999       -0.05810710095669511     0.045000000000000005
0.023999999999999994      -0.05810710095669511     0.055999999999999994
0.023999999999999994      -0.05810710095669511     0.06699999999999999
0.036                     -0.05810710095669511     0.05600000000000002
0.023999999999999994      -0.05810710095669511     0.078
0.023999999999999994      -0.05810710095669511     0.089
0.023999999999999997      -0.05810710095669511     0.1
0.048                     -0.05810710095669511     0.034000000000000016
0.06                      -0.0581071009566951      0.034
0.04799999999999999       -0.05810710095669511     0.04499999999999999
0.059999999999999984      -0.05810710095669509     0.045
0.047999999999999994      -0.05810710095669511     0.055999999999999994
0.036                     -0.05810710095669511     0.067
0.06                      -0.0581071009566951      0.05600000000000001
0.03599999999999999       -0.05810710095669511     0.078
0.03599999999999999       -0.05810710095669511     0.089
0.03599999999999999       -0.0581071009566951      0.1
0.047999999999999994      -0.05810710095669511     0.067
0.06                      -0.05810710095669511     0.067
0.04799999999999999       -0.05810710095669511     0.078
0.04799999999999999       -0.05810710095669511     0.089
0.04799999999999999       -0.05810710095669509     0.1
0.05999999999999999       -0.05810710095669511     0.078
0.06                      -0.0581071009566951      0.089
0.06                      -0.0581071009566951      0.1
-0.06                     -0.0461071009566951      -0.01
-0.048                    -0.04610710095669509     -0.01
-0.06                     -0.034107100956695106    -0.01
-0.048                    -0.03410710095669509     -0.01
-0.036000000000000004     -0.04610710095669509     -0.01
-0.06                     -0.022107100956695103    -0.01
-0.048                    -0.022107100956695096    -0.01
-0.036000000000000004     -0.034107100956695106    -0.01
-0.06                     -0.010107100956695104    -0.01
-0.048                    -0.010107100956695099    -0.01
-0.024                    -0.04610710095669509     -0.01
-0.036000000000000004     -0.022107100956695103    -0.01
-0.024000000000000007     -0.0341071009566951      -0.01
-0.01200000000000001      -0.04610710095669509     -0.01
-0.036000000000000004     -0.010107100956695106    -0.01
-0.06                     0.0018928990433048941    -0.009999999999999998
-0.048                    0.0018928990433048996    -0.01
-0.024000000000000007     -0.0221071009566951      -0.01
-0.012000000000000007     -0.0341071009566951      -0.01
3.469446951953614E-18     -0.046107100956695096    -0.01
-0.060000000000000005     0.013892899043304908     -0.01
-0.048                    0.013892899043304896     -0.01
-0.024000000000000004     -0.010107100956695104    -0.01
-0.036000000000000004     0.0018928990433049048    -0.01
-0.060000000000000005     0.025892899043304905     -0.01
-0.047999999999999994     0.025892899043304902     -0.01
-0.060000000000000005     0.0378928990433049       -0.01
-0.048                    0.0378928990433049       -0.01
-0.012000000000000012     -0.0221071009566951      -0.01
3.469446951953614E-18     -0.03410710095669509     -0.01
0.012000000000000004      -0.04610710095669509     -0.01
-0.060000000000000005     0.0498928990433049       -0.01
-0.048                    0.0498928990433049       -0.01
-0.06                     0.0618928990433049       -0.01
-0.04800000000000001      0.0618928990433049       -0.01
-0.036000000000000004     0.013892899043304908     -0.01
-0.024000000000000004     0.001892899043304896     -0.01
-0.01200000000000001      -0.010107100956695104    -0.01
-0.036000000000000004     0.025892899043304912     -0.01
-0.036000000000000004     0.037892899043304895     -0.01
3.469446951953614E-18     -0.022107100956695096    -0.01
0.012000000000000004      -0.03410710095669511     -0.01
0.02399999999999999       -0.04610710095669509     -0.01
-0.036000000000000004     0.04989289904330489      -0.01
-0.036000000000000004     0.0618928990433049       -0.01
-0.024                    0.013892899043304915     -0.01
-0.012000000000000007     0.0018928990433049048    -0.01
3.469446951953614E-18     -0.010107100956695106    -0.01
-0.024                    0.02589289904330489      -0.01
-0.024                    0.03789289904330491      -0.01
0.023999999999999994      -0.03410710095669511     -0.01
0.012000000000000004      -0.02210710095669511     -0.01
0.01200000000000001       -0.010107100956695106    -0.01
0.036000000000000004      -0.04610710095669511     -0.01
-0.023999999999999994     0.049892899043304906     -0.01
-0.023999999999999997     0.0618928990433049       -0.01
-0.012000000000000007     0.013892899043304902     -0.01
0                         0.0018928990433049048    -0.01
-0.012000000000000007     0.025892899043304902     -0.01
-0.012000000000000007     0.03789289904330491      -0.01
0.048                     -0.04610710095669511     -0.01
0.06                      -0.046107100956695096    -0.01
0.036000000000000004      -0.034107100956695106    -0.01
0.023999999999999994      -0.022107100956695096    -0.01
0.012000000000000004      0.0018928990433049048    -0.01
0.023999999999999994      -0.010107100956695106    -0.01
0.047999999999999994      -0.034107100956695106    -0.01
0.06                      -0.0341071009566951      -0.01
-0.012000000000000004     0.049892899043304906     -0.01
-0.012000000000000004     0.0618928990433049       -0.01
-3.469446951953614E-18    0.01389289904330491      -0.01
-3.469446951953614E-18    0.025892899043304912     -0.01
0.012000000000000002      0.013892899043304905     -0.01
-3.469446951953614E-18    0.0378928990433049       -0.01
0.036                     -0.022107100956695117    -0.01
0.024000000000000007      0.001892899043304903     -0.01
0.04800000000000001       -0.0221071009566951      -0.01
0.036000000000000004      -0.01010710095669511     -0.01
0.06                      -0.022107100956695103    -0.01
-3.469446951953614E-18    0.049892899043304906     -0.01
-3.2526065174565133E-18   0.0618928990433049       -0.009999999999999998
0.012000000000000007      0.025892899043304912     -0.01
0.024                     0.01389289904330491      -0.01
0.012000000000000007      0.037892899043304895     -0.01
0.036000000000000004      0.00189289904330491      -0.01
0.048                     -0.01010710095669511     -0.01
0.06                      -0.010107100956695106    -0.01
0.012000000000000009      0.049892899043304906     -0.01
0.01200000000000001       0.0618928990433049       -0.01
0.024000000000000004      0.0258928990433049       -0.01
0.036000000000000004      0.013892899043304908     -0.01
0.02400000000000001       0.03789289904330491      -0.01
0.048000000000000015      0.0018928990433049052    -0.01
0.048                     0.013892899043304896     -0.01
0.06                      0.0018928990433049087    -0.009999999999999998
0.02400000000000001       0.049892899043304906     -0.01
0.024000000000000007      0.0618928990433049       -0.01
0.03600000000000001       0.02589289904330491      -0.01
0.036000000000000004      0.03789289904330488      -0.01
0.048                     0.025892899043304902     -0.01
0.06                      0.013892899043304908     -0.01
0.036000000000000004      0.049892899043304906     -0.01
0.036000000000000004      0.0618928990433049       -0.01
0.047999999999999994      0.037892899043304895     -0.01
0.06                      0.025892899043304905     -0.01
0.06                      0.0378928990433049       -0.01
0.047999999999999994      0.049892899043304906     -0.01
0.048                     0.0618928990433049       -0.01
0.06                      0.049892899043304906     -0.01
0.06                      0.0618928990433049       -0.01
0.06                      -0.046107100956695096    0.0010000000000000148
0.06                      -0.0341071009566951      0.0010000000000000148
0.06                      -0.04610710095669507     0.01200000000000001
0.06                      -0.0341071009566951      0.01200000000000001
0.06                      -0.022107100956695117    0.0010000000000000009
0.06                      -0.04610710095669507     0.023000000000000007
0.06                      -0.0341071009566951      0.022999999999999993
0.06                      -0.04610710095669508     0.03399999999999999
0.06                      -0.02210710095669506     0.01200000000000001
0.06                      -0.010107100956695106    0.0010000000000000009
0.06                      -0.02210710095669509     0.022999999999999993
0.06                      -0.04610710095669508     0.045
0.06                      -0.0341071009566951      0.03399999999999999
0.06                      -0.04610710095669508     0.05600000000000001
0.06                      -0.010107100956695106    0.01200000000000001
0.06                      0.0018928990433049048    0.0010000000000000286
0.06                      0.013892899043304902     0.0010000000000000148
0.06                      -0.02210710095669506     0.034
0.06                      -0.010107100956695106    0.023000000000000007
0.06                      -0.0341071009566951      0.045
0.06                      -0.04610710095669508     0.067
0.06                      -0.0341071009566951      0.055999999999999994
0.06                      -0.02210710095669509     0.04500000000000001
0.06                      0.0018928990433049048    0.01200000000000001
0.06                      0.0258928990433049       0.0010000000000000148
0.06                      0.013892899043304915     0.01200000000000001
0.06                      -0.010107100956695106    0.034
0.06                      0.0018928990433049048    0.022999999999999993
0.06                      0.037892899043304895     0.0010000000000000009
0.06                      -0.04610710095669508     0.078
0.06                      -0.0341071009566951      0.067
0.06                      -0.04610710095669508     0.089
0.06                      -0.02210710095669509     0.05600000000000001
0.06                      -0.010107100956695106    0.045
0.06                      0.0258928990433049       0.01200000000000001
0.06                      0.013892899043304915     0.023000000000000007
0.06                      0.0018928990433049048    0.034
0.06                      0.04989289904330489      0.0010000000000000148
0.06                      0.037892899043304895     0.01200000000000001
0.06                      -0.04610710095669509     0.1
0.06                      -0.0341071009566951      0.07799999999999999
0.06                      -0.02210710095669509     0.067
0.06                      -0.034107100956695086    0.08899999999999998
0.06                      -0.010107100956695106    0.05600000000000001
0.06                      0.0018928990433049048    0.044999999999999984
0.06                      0.0258928990433049       0.023000000000000007
0.06                      0.013892899043304902     0.033999999999999975
0.059999999999999984      0.06189289904330489      0.0010000000000000135
0.06                      0.0498928990433049       0.01200000000000001
0.06                      0.0378928990433049       0.023000000000000007
0.059999999999999984      -0.034107100956695086    0.09999999999999999
0.06                      -0.022107100956695075    0.078
0.06                      -0.010107100956695106    0.067
0.06                      -0.02210710095669509     0.089
0.06                      0.0018928990433049048    0.05600000000000002
0.06                      0.013892899043304902     0.04500000000000001
0.06                      0.0258928990433049       0.033999999999999975
0.06                      0.0618928990433049       0.01200000000000001
0.06                      0.049892899043304906     0.023000000000000034
0.06                      0.037892899043304895     0.03399999999999999
0.06                      -0.02210710095669509     0.1
0.06                      -0.010107100956695106    0.07799999999999999
0.06                      0.0018928990433049048    0.067
0.06                      -0.010107100956695092    0.089
0.06                      0.013892899043304915     0.05600000000000002
0.06                      0.0258928990433049       0.04500000000000001
0.06                      0.0258928990433049       0.055999999999999994
0.06                      0.0618928990433049       0.023000000000000007
0.06                      0.0498928990433049       0.034000000000000016
0.06                      0.03789289904330489      0.04499999999999999
0.060000000000000005      -0.010107100956695094    0.1
0.06                      0.0018928990433049048    0.078
0.06                      0.013892899043304915     0.06699999999999999
0.06                      0.0018928990433049048    0.089
0.06                      0.0258928990433049       0.06699999999999999
0.06                      0.037892899043304895     0.05600000000000002
0.06                      0.0618928990433049       0.034
0.06                      0.04989289904330489      0.04499999999999999
0.06                      0.0018928990433049022    0.1
0.06                      0.013892899043304915     0.07799999999999999
0.06                      0.013892899043304915     0.089
0.06                      0.0258928990433049       0.078
0.06                      0.037892899043304895     0.067
0.06                      0.0498928990433049       0.055999999999999994
0.059999999999999984      0.06189289904330489      0.045
0.060000000000000005      0.01389289904330491      0.1
0.06                      0.0258928990433049       0.089
0.06                      0.037892899043304895     0.078
0.06                      0.0498928990433049       0.067
0.06                      0.0618928990433049       0.05600000000000001
0.06                      0.025892899043304902     0.1
0.06                      0.037892899043304895     0.089
0.06                      0.04989289904330489      0.078
0.06                      0.0618928990433049       0.067
0.06                      0.037892899043304895     0.1
0.06                      0.04989289904330489      0.089
0.05999999999999999       0.061892899043304896     0.078
0.06                      0.04989289904330489      0.1
0.06                      0.0618928990433049       0.089
0.06                      0.0618928990433049       0.1
-0.05999999999999999      -0.032722485572079706    -1.9409493437502742E-18
-0.06                     -0.040414793264387405    -9.704746718751371E-19
-0.06                     -0.0481071009566951      0
-0.05999999999999999      -0.05310710095669509     -0.0050000000000000044
-0.05999999999999999      -0.05310710095669509     0.0038333333333333414
-0.06                     -0.0481071009566951      0.006666666666666666
-0.05999999999999999      -0.05310710095669509     0.016000000000000014
-0.06                     -0.0481071009566951      0.020000000000000004
-0.060000000000000005     -0.048107100956695105    0.013333333333333336
-0.05999999999999999      -0.05310710095669509     0.037000000000000005
-0.06                     -0.0481071009566951      0.04
-0.060000000000000005     -0.048107100956695105    0.03333333333333335
-0.05999999999999999      -0.05310710095669509     0.030333333333333337
-0.06                     -0.0481071009566951      0.02666666666666667
-0.06000000000000001      -0.025030177879772023    -2.9114240156254117E-18
-0.06                     -0.017337870187464324    -3.8818986875005484E-18
-0.05999999999999999      -0.029568639418233553    -0.0050000000000000044
-0.06                     -0.009645562495156634    -4.852373359375686E-18
-0.06                     -0.0481071009566951      0.046666666666666676
-0.05999999999999999      -0.006030177879772017    -0.0050000000000000044
-0.06                     -0.0019532548028489416   -5.8228480312508226E-18
-0.06                     0.005739052889458751     -6.793322703125959E-18
-0.05999999999999999      -0.04810710095669509     0.05333333333333333
-0.06                     -0.0481071009566951      0.06
-0.05999999999999999      -0.05310710095669509     0.049166666666666664
-0.06                     0.009815975966381826     -0.0050000000000000044
-0.05999999999999999      0.013431360581766444     -7.763797375001097E-18
-0.060000000000000005     0.02112366827407414      -8.734272046876233E-18
-0.06                     0.02881597596638183      -9.70474671875137E-18
-0.06                     0.03335443750484336      -0.0050000000000000044
-0.060000000000000005     0.03650828365868953      -1.0675221390626509E-17
-0.06                     0.044200591350997215     -1.1645696062501644E-17
-0.05999999999999999      -0.05310710095669509     0.0635
-0.060000000000000005     -0.048107100956695105    0.06666666666666668
-0.05999999999999999      -0.05310710095669509     0.07016666666666667
-0.06                     -0.0481071009566951      0.07333333333333333
-0.06                     -0.0481071009566951      0.08
-0.06                     -0.0481071009566951      0.08666666666666667
-0.06000000000000001      -0.0481071009566951      0.09333333333333334
-0.05999999999999999      -0.05310710095669509     0.08233333333333334
-0.05999999999999999      -0.05310710095669509     0.09666666666666668
-0.06                     -0.0481071009566951      0.1
-0.06                     0.0518928990433049       -1.845114969902605E-17
-0.06                     0.05638316713099493      -0.004490268087690046
-0.052666666666666646     -0.04810710095669507     0.09999999999999996
-0.04533333333333334      -0.0481071009566951      0.1
-0.04066666666666666      -0.05310710095669509     0.1
-0.03799999999999999      -0.04810710095669509     0.1
-0.030666666666666672     -0.04810710095669509     0.10000000000000002
-0.02333333333333334      -0.0481071009566951      0.1
-0.019999999999999997     -0.05310710095669509     0.1
-0.016                    -0.04810710095669509     0.1
-0.008666666666666668     -0.0481071009566951      0.10000000000000002
-0.004333333333333336     -0.053107100956695096    0.1
-0.0013333333333333326    -0.04810710095669509     0.1
0.005999999999999998      -0.0481071009566951      0.1
0.013333333333333332      -0.048107100956695105    0.10000000000000002
0.016333333333333335      -0.0531071009566951      0.1
0.020666666666666667      -0.0481071009566951      0.1
0.028000000000000008      -0.04810710095669509     0.1
0.032                     -0.053107100956695096    0.1
0.03533333333333335       -0.04810710095669511     0.10000000000000003
0.04266666666666667       -0.0481071009566951      0.1
0.055                     -0.0531071009566951      0.1
0.05                      -0.0481071009566951      0.1
0.05                      -0.04077376762336176     0.09999999999999996
0.05000000000000002       -0.033440434290028444    0.1
0.055                     -0.030107100956695096    0.1
0.05000000000000002       -0.026107100956695103    0.1
0.05000000000000002       -0.018773767623361772    0.1
0.05500000000000001       -0.014440434290028434    0.1
0.05000000000000002       -0.011440434290028445    0.1
0.05000000000000001       -0.004107100956695106    0.1
0.05                      0.003226232376638224     0.09999999999999998
0.05500000000000001       0.006226232376638228     0.1
0.05000000000000002       0.010559565709971554     0.1
0.05000000000000001       0.017892899043304884     0.1
0.05500000000000001       0.021892899043304895     0.1
0.05000000000000001       0.025226232376638215     0.1
0.05                      0.03255956570997155      0.1
0.055                     0.04255956570997156      0.1
0.05                      0.0398928990433049       0.1
0.05                      0.04722623237663823      0.1
0.049999999999999996      0.05455956570997156      0.09999999999999999
0.05                      0.0618928990433049       0.1
-0.05500000000000001      0.05689289904330491      -1.3997193495380832E-17
-0.05440316105860595      0.061892899043304916     -0.00440316105860595
-0.05                     0.0618928990433049       -1.387778780781446E-17
-0.043333333333333335     0.06189289904330491      0
-0.03966666666666667      0.0618928990433049       -0.0050000000000000044
-0.03666666666666667      0.061892899043304896     0
-0.03                     0.0618928990433049       0
-0.023333333333333338     0.06189289904330491      0
-0.020333333333333328     0.0618928990433049       -0.0050000000000000044
-0.01666666666666667      0.0618928990433049       0
-0.010000000000000002     0.06189289904330491      0
-0.007666666666666669     0.0618928990433049       -0.0050000000000000044
-0.003333333333333334     0.0618928990433049       0
0.003333333333333333      0.06189289904330491      0
0.007666666666666669      0.0618928990433049       -0.0050000000000000044
0.010000000000000002      0.06189289904330491      0
0.016666666666666663      0.061892899043304916     0
0.020333333333333335      0.0618928990433049       -0.0050000000000000044
0.02333333333333333       0.061892899043304916     0
0.03                      0.061892899043304916     0
0.036666666666666674      0.061892899043304916     0
0.03966666666666667       0.0618928990433049       -0.0050000000000000044
0.043333333333333335      0.061892899043304916     0
0.055                     0.0618928990433049       -0.0050000000000000044
0.05                      0.0618928990433049       0
0.05499999999999999       0.0618928990433049       0.0038333333333333414
0.05000000000000001       0.06189289904330491      0.006666666666666668
0.05                      0.061892899043304896     0.013333333333333336
0.055                     0.0618928990433049       0.016000000000000014
0.05                      0.0618928990433049       0.02
0.05000000000000001       0.06189289904330491      0.02666666666666667
0.05500000000000001       0.0618928990433049       0.030333333333333337
0.05000000000000001       0.0618928990433049       0.03333333333333333
0.05500000000000001       0.0618928990433049       0.037000000000000005
0.05000000000000001       0.0618928990433049       0.04
0.05                      0.061892899043304896     0.04666666666666666
0.05499999999999999       0.0618928990433049       0.04916666666666667
0.05000000000000001       0.0618928990433049       0.053333333333333344
0.05000000000000001       0.0618928990433049       0.060000000000000005
0.05500000000000001       0.0618928990433049       0.0635
0.05000000000000002       0.06189289904330491      0.06666666666666667
0.05500000000000001       0.0618928990433049       0.07016666666666667
0.05000000000000002       0.061892899043304896     0.07333333333333333
0.05000000000000002       0.0618928990433049       0.08
0.05500000000000001       0.0618928990433049       0.08233333333333334
0.05000000000000002       0.06189289904330491      0.08666666666666667
0.05000000000000002       0.061892899043304896     0.09333333333333334
0.05500000000000001       0.0618928990433049       0.09666666666666668
-0.06                     -0.0481071009566951      0.006666666666666666
-0.060000000000000005     -0.048107100956695105    0.013333333333333336
-0.05266666666666665      -0.04810710095669509     0.00666666666666664
-0.05266666666666664      -0.04810710095669509     0.01333333333333335
-0.06                     -0.0481071009566951      0