% Model:              Box_wing_Ray_Matlab_test.mph
% Version:            COMSOL 6.0.0.405
% Date:               Oct 20 2022, 15:04
% Dimension:          3
% Nodes:              1845
% Elements:           3686
% Expressions:        1
% Description:        Material settings
% Length unit:        m
% Coordinates
-0.172927457266784        0.0022454279991227697    0.17
-0.1815877113046285       0.00724542799912276      0.17
-0.17292745726678402      0.0022454279991227697    0.15692307692307697
-0.172927457266784        0.0022454279991227693    0.14384615384615385
-0.18158771130462853      0.00724542799912276      0.14166666666666666
-0.17292745726678396      0.0022454279991227693    0.13076923076923072
-0.172927457266784        0.0022454279991227697    0.11769230769230771
-0.1815877113046285       0.00724542799912276      0.11333333333333333
-0.172927457266784        0.0022454279991227697    0.10461538461538462
-0.1815877113046285       0.00724542799912276      0.08499999999999999
-0.172927457266784        0.0022454279991227697    0.07846153846153847
-0.17292745726678402      0.0022454279991227697    0.09153846153846154
-0.17292745726678402      0.0022454279991227693    0.06538461538461539
-0.172927457266784        0.0022454279991227697    0.05230769230769232
-0.18158771130462853      0.007245427999122761     0.05666666666666668
-0.17566734946842968      0.0038273054992934725    0.04422089033576032
-0.172927457266784        0.00224542799912277      0.039230769230769236
-0.1815877113046285       0.00724542799912276      0.028333333333333346
-0.17292745726678402      0.00224542799912277      0.026153846153846173
-0.172927457266784        0.0022454279991227697    0.013076923076923071
-0.1815877113046285       0.00724542799912276      0
-0.172927457266784        0.0022454279991227697    0
-0.08725946772967211      0.17062673845968201      0.14166666666666666
-0.1007349310975232       0.1472865512510306       0.14166666666666666
-0.0872594677296721       0.17062673845968201      0.17
-0.10073493109752321      0.14728655125103063      0.17000000000000004
-0.0872594677296721       0.17062673845968201      0
-0.10073493109752321      0.14728655125103063      0
-0.08725946772967208      0.170626738459682        0.028333333333333346
-0.08725946772967208      0.17062673845968201      0.11333333333333333
-0.10073493109752318      0.14728655125103063      0.1133333333333333
-0.0872594677296721       0.17062673845968201      0.08499999999999999
-0.10073493109752318      0.14728655125103063      0.08499999999999999
-0.0872594677296721       0.17062673845968204      0.05666666666666668
-0.10073493109752318      0.1472865512510306       0.05666666666666665
-0.1007349310975232       0.1472865512510306       0.028333333333333353
-0.11421039446537427      0.12394636404237923      0.14166666666666666
-0.11421039446537432      0.12394636404237926      0.17000000000000004
-0.11421039446537427      0.12394636404237923      0.11333333333333334
-0.11421039446537432      0.12394636404237926      0
-0.11421039446537427      0.12394636404237923      0.08499999999999998
-0.11421039446537427      0.12394636404237923      0.056666666666666685
-0.11421039446537427      0.12394636404237923      0.028333333333333353
-0.12768585783322536      0.10060617683372786      0.14166666666666664
-0.12768585783322534      0.10060617683372784      0.16999999999999998
-0.14116132120107647      0.07726598962507644      0.14166666666666666
-0.14116132120107647      0.07726598962507643      0.17000000000000004
-0.15463678456892754      0.05392580241642503      0.14166666666666666
-0.15463678456892754      0.05392580241642504      0.17
-0.16811224793677865      0.03058561520777367      0.14166666666666666
-0.16811224793677867      0.030585615207773656     0.17
-0.12768585783322536      0.10060617683372786      0.11333333333333329
-0.12768585783322536      0.10060617683372784      0.08499999999999995
-0.12768585783322534      0.10060617683372784      0
-0.12768585783322536      0.10060617683372783      0.05666666666666664
-0.12768585783322536      0.10060617683372786      0.028333333333333353
-0.14116132120107647      0.07726598962507643      0.1133333333333333
-0.15463678456892754      0.05392580241642503      0.11333333333333333
-0.16811224793677865      0.030585615207773642     0.1133333333333333
-0.14116132120107647      0.07726598962507643      0.08499999999999996
-0.1411613212010765       0.0772659896250764       0.05666666666666667
-0.14116132120107647      0.07726598962507643      0
-0.14116132120107647      0.07726598962507644      0.028333333333333353
-0.15463678456892754      0.05392580241642503      0.08499999999999998
-0.16811224793677865      0.03058561520777367      0.08499999999999999
-0.15463678456892754      0.05392580241642503      0.05666666666666665
-0.15463678456892754      0.05392580241642503      0.02833333333333332
-0.15463678456892754      0.05392580241642504      0
-0.16811224793677867      0.030585615207773587     0.05666666666666667
-0.16811224793677865      0.03058561520777367      0.028333333333333353
-0.16811224793677867      0.030585615207773656     0
-0.11705091443089599      -0.04407596425884365     0
-0.10487463883526027      -0.044075964258843636    0
-0.11705091443089599      -0.0540759642588437      0
-0.09006952987111047      -0.05407596425884368     0
-0.0926983632396246       -0.04407596425884364     0
-0.08052208764398887      -0.044075964258843636    0
-0.06308814531132499      -0.05407596425884367     0
-0.06834581204835315      -0.04407596425884362     0
-0.05616953645271745      -0.04407596425884362     0
-0.043993260857081745     -0.044075964258843615    0
-0.03181698526144603      -0.044075964258843615    0
-0.0361067607515395       -0.05407596425884366     0
-0.01964070966581032      -0.0440759642588436      0
-0.007464434070174601     -0.04407596425884359     0
0.0047118415254611135     -0.04407596425884359     0
-0.009125376191754006     -0.05407596425884364     0
0.016888117121096825      -0.04407596425884358     0
0.02906439271673254       -0.04407596425884358     0
0.0178560083680315        -0.05407596425884362     0
0.04124066831236825       -0.044075964258843595    0
0.0524713860224328        -0.03479681388856075     0
0.044837392927817         -0.0540759642588436      0
0.06370210373249735       -0.0255176635182779      0
0.07493282144256191       -0.01623851314799505     0
0.06609196776656784       -0.03651480734289212     0
0.08734654260531867       -0.018953650426940645    0
0.08616353915262648       -0.006959362777712199    0
0.10860111744406947       -0.001392493510989156    0
0.09739425686269101       0.002319787592570645     0
0.1086249745727556        0.011598937962853498     0
0.1198556922828202        0.02087808833313645      0
0.11985569228282018       0.03159329768929641      0
0.1298556922828202        0.01616866340496235      0
0.1198556922828202        0.04230850704545638      0
0.11985569228282021       0.05302371640161634      0
0.1298556922828202        0.04401434567322628      0
0.1198556922828202        0.07445413511393627      0
0.12985569228282023       0.07186002794149021      0
0.11985569228282023       0.06373892575777633      0
0.1198556922828202        0.08516934447009623      0
0.1198556922828202        0.0958845538262562       0
0.1298556922828202        0.0997057102097541       0
0.11157889091285443       0.10513343734531704      0
0.10330208954288858       0.11438232086437784      0
0.11398893218770571       0.11743596727223607      0
0.0950252881729228        0.12363120438343866      0
0.09812217209259118       0.13516622433471798      0
0.08674848680295699       0.1328800879024995       0
0.0784716854329912        0.1421289714215603       0
0.08225541199747669       0.15289648139719997      0
0.0701948840630254        0.15137785494062114      0
0.0619180826930596        0.160626738459682        0
0.06638865190236219       0.17062673845968201      0
0.050887002098379965      0.160626738459682        0
0.039855921503700306      0.160626738459682        0
0.028824840909020648      0.16062673845968203      0
0.035659027975955326      0.17062673845968201      0
0.017793760314340993      0.160626738459682        0
0.006762679719661343      0.16062673845968198      0
-0.004268400875018305     0.160626738459682        0
0.0049294040495484704     0.17062673845968201      0
-0.015299481469697958     0.160626738459682        0
-0.026330562064377623     0.16062673845968195      0
-0.025800219876858394     0.170626738459682        0
-0.037361642659057274     0.160626738459682        0
-0.059423803848416584     0.16062673845968195      0
-0.05652984380326524      0.170626738459682        0
-0.04839272325373692      0.160626738459682        0
-0.07045488444309622      0.16062673845968192      0
-0.08148596503777589      0.160626738459682        0
-0.08851992597846892      0.14844356073194664      0
-0.09555388691916196      0.13626038300421128      0
-0.102587847859855        0.12407720527647595      0
-0.10962180880054802      0.11189402754874056      0
-0.11665576974124107      0.09971084982100523      0
-0.12368973068193409      0.08752767209326985      0
-0.13072369162262718      0.07534449436553453      0
-0.13775765256332018      0.06316131663779917      0
-0.14479161350401323      0.0509781389100638       0
-0.15182557444470623      0.03879496118232844      0
-0.15885953538539926      0.02661178345459308      0
-0.16589349632609224      0.01442860572685772      0
-0.11705091443089599      -0.04407596425884365     0.17
-0.11705091443089599      -0.0540759642588437      0.17
-0.10487463883526027      -0.044075964258843636    0.17
-0.0926983632396246       -0.04407596425884364     0.17000000000000004
-0.09006952987111047      -0.05407596425884368     0.16999999999999998
-0.08052208764398887      -0.044075964258843636    0.17
-0.06834581204835315      -0.04407596425884362     0.17
-0.06308814531132499      -0.05407596425884367     0.17
-0.05616953645271745      -0.04407596425884362     0.17000000000000004
-0.043993260857081745     -0.044075964258843615    0.17
-0.03181698526144603      -0.044075964258843615    0.17000000000000004
-0.0361067607515395       -0.05407596425884366     0.17
-0.01964070966581032      -0.0440759642588436      0.16999999999999998
-0.007464434070174601     -0.04407596425884359     0.17
-0.009125376191754006     -0.05407596425884364     0.17
0.0047118415254611135     -0.04407596425884359     0.17000000000000004
0.016888117121096825      -0.04407596425884358     0.17000000000000004
0.0178560083680315        -0.05407596425884362     0.16999999999999998
0.02906439271673254       -0.04407596425884358     0.17000000000000004
0.04124066831236825       -0.044075964258843595    0.17
0.044837392927817         -0.0540759642588436      0.17
0.0524713860224328        -0.03479681388856075     0.17
0.06609196776656784       -0.03651480734289212     0.17000000000000007
0.06370210373249735       -0.0255176635182779      0.17
0.07493282144256191       -0.01623851314799505     0.17
0.08734654260531867       -0.018953650426940645    0.17000000000000004
0.08616353915262648       -0.006959362777712199    0.16999999999999996
0.09739425686269101       0.002319787592570645     0.16999999999999998
0.10860111744406947       -0.001392493510989156    0.17
0.1086249745727556        0.011598937962853498     0.17
0.1198556922828202        0.02087808833313645      0.17
0.1298556922828202        0.01616866340496235      0.17
0.11985569228282018       0.03159329768929641      0.17
0.1198556922828202        0.04230850704545638      0.17000000000000004
0.1298556922828202        0.04401434567322628      0.17
0.11985569228282021       0.05302371640161634      0.17
0.1198556922828202        0.07445413511393627      0.16999999999999998
0.11985569228282023       0.06373892575777633      0.17
0.12985569228282023       0.07186002794149021      0.17000000000000004
0.1198556922828202        0.08516934447009623      0.17
0.1198556922828202        0.0958845538262562       0.17
0.1298556922828202        0.0997057102097541       0.17
0.11157889091285443       0.10513343734531704      0.17000000000000007
0.10330208954288858       0.11438232086437784      0.17
0.11398893218770571       0.11743596727223607      0.17
0.0950252881729228        0.12363120438343866      0.16999999999999998
0.09812217209259118       0.13516622433471798      0.16999999999999998
0.08674848680295699       0.1328800879024995       0.17
0.0784716854329912        0.1421289714215603       0.17
0.08225541199747669       0.15289648139719997      0.17000000000000004
0.0701948840630254        0.15137785494062114      0.17
0.0619180826930596        0.160626738459682        0.17
0.06638865190236219       0.17062673845968201      0.17
0.050887002098379965      0.160626738459682        0.17
0.039855921503700306      0.160626738459682        0.17
0.035659027975955326      0.17062673845968201      0.17
0.028824840909020648      0.16062673845968203      0.17000000000000004
0.017793760314340993      0.160626738459682        0.17
0.006762679719661343      0.16062673845968198      0.17
0.0049294040495484704     0.17062673845968201      0.17000000000000004
-0.004268400875018305     0.160626738459682        0.16999999999999998
-0.015299481469697958     0.160626738459682        0.17
-0.026330562064377623     0.16062673845968195      0.17
-0.025800219876858394     0.170626738459682        0.17
-0.037361642659057274     0.160626738459682        0.17000000000000004
-0.059423803848416584     0.16062673845968195      0.17
-0.04839272325373692      0.160626738459682        0.16999999999999998
-0.05652984380326524      0.170626738459682        0.17
-0.07045488444309622      0.16062673845968192      0.16999999999999996
-0.08148596503777589      0.160626738459682        0.17
-0.08851992597846892      0.14844356073194664      0.17
-0.09555388691916196      0.13626038300421128      0.17000000000000007
-0.102587847859855        0.12407720527647595      0.17000000000000004
-0.10962180880054802      0.11189402754874056      0.17
-0.11665576974124107      0.09971084982100523      0.17000000000000004
-0.12368973068193409      0.08752767209326985      0.17
-0.13072369162262718      0.07534449436553453      0.17000000000000007
-0.13775765256332018      0.06316131663779917      0.17
-0.14479161350401323      0.0509781389100638       0.17000000000000004
-0.15182557444470623      0.03879496118232844      0.16999999999999998
-0.15885953538539926      0.02661178345459308      0.17
-0.16589349632609224      0.01442860572685772      0.16999999999999996
-0.08500294550812239      0.15453514959581435      0.1634615384615385
-0.08148596503777589      0.16062673845968203      0.15692307692307697
-0.08500294550812239      0.15453514959581435      0.11115384615384619
-0.08148596503777589      0.160626738459682        0.10461538461538462
-0.08148596503777589      0.160626738459682        0.11769230769230771
-0.08500294550812239      0.15453514959581435      0.019615384615384673
-0.08148596503777589      0.160626738459682        0.013076923076923071
-0.08148596503777589      0.16062673845968203      0.026153846153846173
-0.08500294550812239      0.15453514959581435      0.03269230769230774
-0.08148596503777589      0.160626738459682        0.039230769230769236
-0.0850029455081224       0.15453514959581433      0.006538461538461521
-0.08851992597846889      0.1484435607319467       0.15692307692307697
-0.08500294550812239      0.15453514959581435      0.15038461538461542
-0.0920369064488154       0.14235197186807902      0.1634615384615385
-0.08500294550812239      0.15453514959581435      0.12423076923076923
-0.08148596503777587      0.16062673845968198      0.13076923076923072
-0.08148596503777589      0.160626738459682        0.14384615384615385
-0.08851992597846889      0.1484435607319467       0.13076923076923075
-0.08851992597846889      0.1484435607319467       0.14384615384615385
-0.09203690644881539      0.14235197186807907      0.15038461538461542
-0.09203690644881539      0.14235197186807905      0.13730769230769233
-0.08500294550812239      0.15453514959581435      0.1373076923076923
-0.09555388691916189      0.1362603830042114       0.13076923076923078
-0.08851992597846889      0.1484435607319467       0.11769230769230772
-0.09203690644881539      0.14235197186807905      0.12423076923076928
-0.08851992597846889      0.1484435607319467       0.1046153846153847
-0.08500294550812239      0.15453514959581435      0.09807692307692312
-0.09203690644881539      0.14235197186807907      0.11115384615384624
-0.09555388691916189      0.1362603830042114       0.10461538461538476
-0.09203690644881539      0.14235197186807907      0.09807692307692317
-0.08148596503777589      0.16062673845968203      0.09153846153846154
-0.08851992597846889      0.1484435607319467       0.09153846153846158
-0.08500294550812239      0.15453514959581435      0.07192307692307696
-0.08148596503777589      0.160626738459682        0.07846153846153847
-0.08851992597846889      0.1484435607319467       0.07846153846153854
-0.09203690644881539      0.14235197186807907      0.08500000000000012
-0.08500294550812239      0.15453514959581435      0.08500000000000003
-0.08148596503777587      0.16062673845968198      0.06538461538461539
-0.08851992597846889      0.1484435607319467       0.06538461538461546
-0.09203690644881539      0.14235197186807905      0.07192307692307705
-0.08500294550812239      0.15453514959581435      0.045769230769230826
-0.0814859650377759       0.16062673845968203      0.05230769230769232
-0.08851992597846889      0.1484435607319467       0.0523076923076924
-0.09203690644881539      0.14235197186807905      0.05884615384615399
-0.08500294550812239      0.15453514959581435      0.058846153846153895
-0.08851992597846889      0.1484435607319467       0.03923076923076935
-0.09203690644881539      0.14235197186807907      0.04576923076923092
-0.08851992597846889      0.1484435607319467       0.01307692307692315
-0.08851992597846889      0.1484435607319467       0.0261538461538463
-0.09203690644881539      0.14235197186807907      0.032692307692307854
-0.09203690644881539      0.14235197186807907      0.019615384615384812
-0.09203690644881543      0.142351971868079        0.006538461538461576
-0.09555388691916189      0.13626038300421142      0.026153846153846357
-0.09555388691916189      0.1362603830042114       0.013076923076923293
-0.09907086738950838      0.13016879414034377      0.019615384615384923
-0.09907086738950842      0.1301687941403437       0.16346153846153852
-0.11313878927089438      0.10580243868487318      0.15038461538461548
-0.10962180880054788      0.11189402754874084      0.156923076923077
-0.1166557697412409       0.09971084982100553      0.15692307692307703
-0.11313878927089446      0.10580243868487305      0.16346153846153852
-0.10610482833020143      0.11798561641260838      0.16346153846153852
-0.12017275021158746      0.09361926095713774      0.16346153846153852
-0.1412746330336665       0.05706972777393177      0.16346153846153855
-0.14479161350401287      0.05097813891006439      0.15692307692307708
-0.13775765256331984      0.0631613166377997       0.15692307692307705
-0.14127463303366636      0.05706972777393203      0.15038461538461556
-0.1342406720929735       0.0692529055016671       0.16346153846153855
-0.13072369162262687      0.07534449436553496      0.15692307692307705
-0.13424067209297336      0.06925290550166734      0.15038461538461553
-0.1272067111522805       0.08143608322940242      0.16346153846153852
-0.14479161350401287      0.05097813891006439      0.14384615384615404
-0.14830859397435936      0.04488655004619674      0.15038461538461556
-0.15182557444470585      0.03879496118232911      0.15692307692307705
-0.14830859397435953      0.04488655004619645      0.16346153846153855
-0.15182557444470585      0.03879496118232911      0.14384615384615407
-0.14830859397435936      0.04488655004619674      0.13730769230769255
-0.15534255491505233      0.03270337231846146      0.1503846153846156
-0.15534255491505256      0.0327033723184611       0.16346153846153855
-0.16237651585574556      0.020520194590725793     0.16346153846153852
-0.16941047679643856      0.008337016862990515     0.16346153846153846
-0.09555388691916189      0.1362603830042114       0.156923076923077
-0.09555388691916189      0.13626038300421142      0.14384615384615387
-0.09907086738950838      0.13016879414034377      0.13730769230769235
-0.10258784785985486      0.12407720527647616      0.1438461538461539
-0.10258784785985489      0.12407720527647616      0.1307692307692308
-0.09907086738950838      0.13016879414034377      0.12423076923076931
-0.10610482833020138      0.11798561641260849      0.13730769230769238
-0.10258784785985486      0.12407720527647616      0.156923076923077
-0.10610482833020138      0.11798561641260849      0.15038461538461548
-0.09907086738950838      0.13016879414034377      0.15038461538461545
-0.10962180880054789      0.11189402754874084      0.13076923076923086
-0.10610482833020138      0.11798561641260849      0.12423076923076935
-0.09907086738950838      0.13016879414034377      0.1111538461538463
-0.09555388691916189      0.1362603830042114       0.11769230769230779
-0.10258784785985486      0.12407720527647616      0.11769230769230783
-0.09907086738950838      0.13016879414034377      0.09807692307692324
-0.10258784785985486      0.12407720527647616      0.10461538461538479
-0.10610482833020138      0.11798561641260849      0.11115384615384634
-0.10962180880054785      0.11189402754874084      0.10461538461538485
-0.10610482833020138      0.11798561641260849      0.09807692307692328
-0.09907086738950843      0.13016879414034369      0.006538461538461632
-0.10258784785985486      0.12407720527647616      0.09153846153846174
-0.09555388691916189      0.1362603830042114       0.07846153846153864
-0.09555388691916189      0.1362603830042114       0.09153846153846165
-0.09907086738950839      0.13016879414034377      0.07192307692307713
-0.10258784785985486      0.12407720527647616      0.0784615384615387
-0.10610482833020138      0.11798561641260849      0.08500000000000026
-0.09907086738950838      0.13016879414034377      0.08500000000000017
-0.09907086738950838      0.13016879414034377      0.03269230769230799
-0.09555388691916189      0.13626038300421142      0.03923076923076946
-0.09555388691916189      0.1362603830042114       0.06538461538461555
-0.10258784785985489      0.12407720527647612      0.06538461538461564
-0.10610482833020138      0.11798561641260849      0.07192307692307721
-0.09555388691916189      0.13626038300421142      0.05230769230769253
-0.10610482833020138      0.11798561641260849      0.05884615384615419
-0.10258784785985486      0.12407720527647616      0.052307692307692624
-0.09907086738950838      0.13016879414034377      0.045769230769231034
-0.09907086738950838      0.13016879414034377      0.0588461538461541
-0.10258784785985486      0.12407720527647616      0.03923076923076957
-0.10610482833020138      0.11798561641260849      0.045769230769231145
-0.10258784785985486      0.12407720527647616      0.026153846153846555
-0.10610482833020138      0.11798561641260849      0.032692307692308076
-0.10258784785985486      0.12407720527647616      0.013076923076923432
-0.10610482833020138      0.11798561641260849      0.01961538461538509
-0.10610482833020146      0.11798561641260835      0.006538461538461715
-0.10962180880054785      0.11189402754874084      0.02615384615384661
-0.10962180880054788      0.11189402754874084      0.01307692307692357
-0.11313878927089437      0.10580243868487321      0.019615384615385173
-0.11313878927089446      0.10580243868487302      0.006538461538461798
-0.11665576974124087      0.09971084982100557      0.013076923076923708
-0.11313878927089438      0.10580243868487318      0.1373076923076924
-0.10962180880054785      0.11189402754874084      0.14384615384615393
-0.1166557697412409       0.09971084982100553      0.14384615384615396
-0.12017275021158737      0.0936192609571379       0.1503846153846155
-0.11313878927089438      0.10580243868487318      0.1242307692307694
-0.1166557697412409       0.09971084982100553      0.1307692307692309
-0.12017275021158737      0.0936192609571379       0.13730769230769244
-0.12368973068193385      0.08752767209327027      0.13076923076923092
-0.12017275021158737      0.0936192609571379       0.12423076923076944
-0.12368973068193385      0.08752767209327028      0.14384615384615398
-0.12720671115228036      0.08143608322940263      0.13730769230769246
-0.13072369162262684      0.07534449436553499      0.143846153846154
-0.12720671115228036      0.08143608322940263      0.1503846153846155
-0.12368973068193385      0.08752767209327025      0.15692307692307703
-0.13072369162262687      0.07534449436553499      0.13076923076923094
-0.12720671115228036      0.08143608322940263      0.12423076923076948
-0.13424067209297336      0.06925290550166735      0.1373076923076925
-0.13775765256331984      0.06316131663779971      0.14384615384615404
-0.14127463303366636      0.057069727773932044     0.13730769230769255
-0.13775765256331984      0.0631613166377997       0.130769230769231
-0.13424067209297336      0.06925290550166735      0.1242307692307695
-0.14479161350401287      0.05097813891006439      0.13076923076923103
-0.14127463303366636      0.05706972777393203      0.12423076923076956
-0.15182557444470585      0.03879496118232911      0.13076923076923105
-0.14830859397435936      0.04488655004619674      0.12423076923076959
-0.15534255491505236      0.03270337231846143      0.13730769230769257
-0.15182557444470585      0.03879496118232911      0.11769230769230812
-0.15534255491505236      0.03270337231846143      0.12423076923076963
-0.16589349632609185      0.014428605726858529     0.15692307692307705
-0.16237651585574533      0.020520194590726182     0.1503846153846156
-0.1658934963260918       0.014428605726858584     0.14384615384615407
-0.16941047679643834      0.008337016862990876     0.15038461538461545
-0.15885953538539888      0.02661178345459378      0.1569230769230771
-0.15885953538539885      0.026611783454593804     0.1438461538461541
-0.16237651585574533      0.020520194590726182     0.1373076923076926
-0.16589349632609182      0.014428605726858557     0.13076923076923108
-0.1694104767964383       0.008337016862990931     0.1373076923076924
-0.10962180880054785      0.11189402754874084      0.11769230769230787
-0.11313878927089438      0.10580243868487318      0.11115384615384641
-0.1166557697412409       0.09971084982100553      0.11769230769230794
-0.1166557697412409       0.09971084982100553      0.10461538461538492
-0.11313878927089438      0.10580243868487318      0.09807692307692335
-0.12017275021158737      0.0936192609571379       0.11115384615384646
-0.10962180880054785      0.11189402754874084      0.07846153846153878
-0.10962180880054788      0.11189402754874084      0.09153846153846179
-0.1166557697412409       0.09971084982100553      0.09153846153846185
-0.12017275021158738      0.09361926095713789      0.09807692307692342
-0.11313878927089438      0.10580243868487318      0.0719230769230773
-0.1166557697412409       0.09971084982100553      0.07846153846153886
-0.12017275021158737      0.0936192609571379       0.08500000000000041
-0.11313878927089438      0.10580243868487318      0.08500000000000034
-0.12017275021158748      0.09361926095713771      0.006538461538461854
-0.11313878927089438      0.10580243868487318      0.03269230769230824
-0.10962180880054788      0.11189402754874084      0.03923076923076968
-0.10962180880054789      0.11189402754874081      0.06538461538461574
-0.1166557697412409       0.09971084982100553      0.06538461538461582
-0.12017275021158738      0.09361926095713788      0.0719230769230774
-0.10962180880054788      0.11189402754874084      0.052307692307692735
-0.11313878927089438      0.10580243868487318      0.04576923076923127
-0.1166557697412409       0.09971084982100553      0.052307692307692846
-0.12017275021158737      0.0936192609571379       0.05884615384615437
-0.11313878927089438      0.10580243868487317      0.0588461538461543
-0.1166557697412409       0.09971084982100553      0.026153846153846808
-0.12017275021158737      0.0936192609571379       0.019615384615385367
-0.1166557697412409       0.09971084982100553      0.03923076923076982
-0.12017275021158737      0.0936192609571379       0.04576923076923138
-0.12017275021158737      0.0936192609571379       0.03269230769230835
-0.12368973068193385      0.08752767209327028      0.013076923076923902
-0.12368973068193385      0.08752767209327028      0.11769230769230797
-0.12368973068193384      0.0875276720932703       0.10461538461538498
-0.13072369162262684      0.07534449436553499      0.11769230769230801
-0.12720671115228036      0.08143608322940263      0.0980769230769235
-0.13072369162262687      0.07534449436553499      0.10461538461538501
-0.13424067209297336      0.06925290550166735      0.11115384615384655
-0.12720671115228036      0.08143608322940263      0.11115384615384649
-0.13775765256331984      0.06316131663779971      0.11769230769230807
-0.14479161350401287      0.05097813891006439      0.11769230769230812
-0.14830859397435936      0.04488655004619674      0.11115384615384666
-0.13775765256331984      0.0631613166377997       0.1046153846153851
-0.13424067209297336      0.06925290550166734      0.09807692307692353
-0.14127463303366636      0.05706972777393203      0.1111538461538466
-0.14479161350401287      0.05097813891006436      0.10461538461538514
-0.14127463303366636      0.05706972777393203      0.09807692307692362
-0.15885953538539888      0.02661178345459378      0.1307692307692311
-0.16237651585574533      0.020520194590726182     0.12423076923076966
-0.15182557444470585      0.03879496118232911      0.10461538461538519
-0.15534255491505236      0.03270337231846143      0.09807692307692373