% Model:              Box_wing_Ray_Matlab_test.mph
% Version:            COMSOL 6.0.0.405
% Date:               Sep 20 2022, 14:00
% Dimension:          3
% Nodes:              2931
% Elements:           5340
% Expressions:        1
% Description:        Material settings
% Length unit:        m
% Coordinates
-0.14433756729740638      -0.25                    0
-0.14433756729740638      -0.25                    0.04999999999999999
-0.1683938285136409       -0.20833333333333354     0
-0.16839382851364088      -0.20833333333333348     0.04999999999999999
-0.14433756729740638      -0.25                    0.1
-0.19245008972987535      -0.16666666666666682     0
-0.19245008972987535      -0.16666666666666677     0.05000000000000002
-0.16839382851364088      -0.20833333333333348     0.09999999999999995
-0.14433756729740638      -0.25                    0.14999999999999997
-0.21650635094610973      -0.12500000000000008     0
-0.21650635094610973      -0.12500000000000008     0.050000000000000044
-0.24056261216234415      -0.08333333333333341     0
-0.19245008972987535      -0.1666666666666668      0.10000000000000003
-0.16839382851364093      -0.20833333333333348     0.14999999999999997
-0.14433756729740638      -0.25                    0.19999999999999998
-0.24056261216234415      -0.08333333333333337     0.05000000000000013
-0.2646188733785785       -0.04166666666666669     0
-0.21650635094610973      -0.12500000000000008     0.10000000000000006
-0.19245008972987535      -0.16666666666666677     0.15
-0.16839382851364093      -0.20833333333333348     0.2
-0.14433756729740638      -0.25000000000000006     0.25000000000000006
-0.26461887337857853      -0.04166666666666671     0.050000000000000155
-0.288675134594813        -1.3191777439614462E-20  0
-0.24056261216234415      -0.08333333333333341     0.10000000000000012
-0.21650635094610973      -0.12500000000000008     0.15000000000000005
-0.19245008972987535      -0.16666666666666677     0.2
-0.16839382851364093      -0.20833333333333345     0.25000000000000006
-0.14433756729740638      -0.25                    0.3
-0.28867513459481303      -1.3191777439614465E-20  0.050000000000000024
-0.26461887337857853      -0.04166666666666674     0.10000000000000009
-0.24056261216234415      -0.0833333333333334      0.15000000000000008
-0.1683938285136409       -0.20833333333333354     0.30000000000000004
-0.21650635094610973      -0.12500000000000006     0.2
-0.19245008972987535      -0.16666666666666674     0.25000000000000006
-0.2886751345948129       -1.3191777439614457E-20  0.09999999999999998
-0.26461887337857853      -0.04166666666666671     0.15000000000000008
-0.24056261216234415      -0.08333333333333338     0.20000000000000007
-0.19245008972987535      -0.16666666666666682     0.30000000000000004
-0.21650635094610973      -0.12500000000000003     0.25000000000000006
-0.288675134594813        -1.3191777439614462E-20  0.14999999999999997
-0.26461887337857853      -0.04166666666666671     0.20000000000000004
-0.24056261216234415      -0.08333333333333337     0.25000000000000006
-0.21650635094610973      -0.12500000000000008     0.30000000000000004
-0.288675134594813        -1.3191777439614462E-20  0.2
-0.26461887337857853      -0.04166666666666671     0.25
-0.24056261216234415      -0.08333333333333341     0.30000000000000004
-0.288675134594813        -1.3191777439614462E-20  0.25
-0.2646188733785785       -0.04166666666666669     0.29999999999999993
-0.288675134594813        -1.3191777439614462E-20  0.3
0.14433756729740638       -0.25                    0.04999999999999999
0.14433756729740638       -0.25                    0.1
0.09622504486493777       -0.25                    0.04999999999999999
0.14433756729740638       -0.25                    0
0.09622504486493778       -0.25                    0
0.09622504486493777       -0.25                    0.10000000000000002
0.048112522432468885      -0.25                    0.04999999999999999
0.04811252243246895       -0.25000000000000006     0
0.04811252243246891       -0.25000000000000006     0.10000000000000003
5.551115123125783E-17     -0.25                    0.04999999999999999
1.1102230246251565E-16    -0.25                    0
8.326672684688674E-17     -0.25                    0.1
-0.04811252243246873      -0.25                    0.04999999999999999
-0.04811252243246871      -0.25                    0
-0.048112522432468746     -0.25                    0.1
-0.09622504486493756      -0.25                    0.04999999999999999
-0.09622504486493755      -0.25                    0
-0.09622504486493759      -0.25                    0.1
-0.13019572579062869      -0.2255056119976746      0.10660691042356407
-0.13279056191361388      -0.23000000000000004     0.10000000000000002
-0.1270170592217176       -0.22                    0.1
-0.12701705922171763      -0.22000000000000003     0.11224121135191908
-0.1330116056387018       -0.23038285896254657     0.10735408969723248
-0.13856406460551013      -0.24                    0.10000000000000002
-0.1306353212672269       -0.2262670136979202      0.11589330544730325
-0.1270170592217176       -0.22000000000000003     0.1273874745714996
-0.13573779055225632      -0.2351047497436508      0.11601834544202627
-0.13213188766006498      -0.2288591427272158      0.1366229266960487
-0.12701705922171758      -0.21999999999999997     0.1470698090606064
-0.13539553253529804      -0.23451194146898127     0.16558848699856976
-0.12701705922171758      -0.21999999999999997     0.17264731014519558
-0.13287191878304055      -0.2301409142313918      0.1856212710469778
-0.1270170592217176       -0.22                    0.205886292739725
-0.1270170592217176       -0.22000000000000003     0.248156216334959
-0.1270170592217176       -0.22                    0.3
-0.12787349951219099      0.07086588651492326      0.3
-0.12787349951219099      0.1108079780671574       0.3
-0.12787349951219099      0.07083671591704735      0.26971791442554977
-0.12787349951219099      0.030923794962689048     0.3
-0.127873499512191        0.03092379496268905      0.24815621633495896
-0.127873499512191        0.11080797806715742      0.24815621633495896
-0.12787349951219099      0.07313268440184148      0.22455760773417321
-0.12787349951219099      0.03092379496268905      0.20588629273972492
-0.12787349951219099      0.11080797806715742      0.20588629273972492
-0.12787349951219099      0.059176903865351675     0.18675304057756295
-0.12787349951219099      0.087082746055993        0.18818621033796834
-0.127873499512191        0.03092379496268905      0.17264731014519558
-0.12787349951219099      0.05442668485719014      0.16120060654544743
-0.127873499512191        0.11080797806715743      0.17264731014519558
-0.12787349951219099      0.08276420821295688      0.16231803749731866
-0.12787349951219099      0.06706132320863428      0.14417765128110688
-0.12787349951219099      0.030923794962689044     0.14706980906060635
-0.12787349951219099      0.047308108211525424     0.13609984506658268
-0.12787349951219099      0.11080797806715739      0.14706980906060635
-0.12787349951219099      0.0900074336870232       0.13570758773831765
-0.12787349951219099      0.06544833273907302      0.12490221909138116
-0.12787349951219099      0.030923794962689044     0.1273874745714996
-0.12787349951219099      0.04398280110001866      0.12083744919750272
-0.12787349951219099      0.11080797806715739      0.1273874745714996
-0.12787349951219099      0.09836426602849917      0.1177383611925687
-0.12787349951219099      0.08305060165213335      0.11454553163844289
-0.12787349951219099      0.06922670128616942      0.10824868347170447
-0.12787349951219099      0.05744213648732171      0.10995308169646156
-0.12787349951219099      0.03092379496268905      0.11224121135191903
-0.12787349951219099      0.042326291196326235     0.1085987475218505
-0.12787349951219099      0.1108079780671574       0.11224121135191903
-0.12787349951219099      0.10226405381134535      0.10727902234638875
-0.12787349951219099      0.09495969183490507      0.10756104539041345
-0.12787349951219096      0.08798392575159503      0.09999999999999999
-0.12787349951219099      0.07657189959381384      0.1
-0.12787349951219099      0.06515987343603266      0.1
-0.12787349951219099      0.053747847278251465     0.09999999999999999
-0.12787349951219099      0.030923794962689048     0.1
-0.127873499512191        0.04233582112047029      0.10000000000000003
-0.12787349951219099      0.1108079780671574       0.1
-0.12787349951219099      0.09939595190937622      0.1
-0.0820971253509697       0.030923794962689048     0.3
-0.08209712535096972      0.03092379496268905      0.24815621633495896
-0.10499466627841016      0.030923794962689048     0.21941480885604764
-0.0820971253509697       0.03092379496268905      0.20588629273972492
-0.10507799288557237      0.030923794962689048     0.18750710212432073
-0.08209712535096972      0.03092379496268905      0.17264731014519558
-0.10719284354570142      0.030923794962689048     0.15601555308902196
-0.08209712535096969      0.030923794962689044     0.14706980906060635
-0.11549899226448826      0.030923794962689048     0.13587657568484868
-0.0820971253509697       0.030923794962689044     0.1273874745714996
-0.09896074713883327      0.030923794962689048     0.1340343557090051
-0.0951100855861974       0.030923794962689048     0.1189263671277681
-0.0820971253509697       0.03092379496268905      0.11224121135191903
-0.09087244011588769      0.030923794962689048     0.10724094725472116
-0.10085092480411045      0.030923794962689048     0.10886933260325732
-0.11320724874152302      0.030923794962689048     0.11928764349743176
-0.11088815189450307      0.030923794962689048     0.10603561133069861
-0.10498531243158038      0.030923794962689048     0.1
-0.09354121889127509      0.03092379496268905      0.1
-0.0820971253509697       0.030923794962689048     0.1
-0.1164294059718857       0.030923794962689048     0.1
-0.11929673448623207      0.030923794962689048     0.10664001133577783
-0.08209712535096972      0.07086588651492326      0.30000000000000004
-0.0820971253509697       0.1108079780671574       0.3
-0.08209712535096972      0.11080797806715742      0.24815621633495896
-0.10499779588594298      0.1108079780671574       0.2194046128427759
-0.0820971253509697       0.11080797806715742      0.20588629273972492
-0.10500122450969984      0.1108079780671574       0.18898060132848993
-0.08209712535096972      0.11080797806715743      0.17264731014519558
-0.10387591041338602      0.1108079780671574       0.15939363292520256
-0.08209712535096969      0.11080797806715739      0.14706980906060635
-0.09565756073441636      0.1108079780671574       0.13803542346981665
-0.0820971253509697       0.11080797806715739      0.1273874745714996
-0.11190585805597549      0.1108079780671574       0.13566737020843644
-0.09548280899635489      0.1108079780671574       0.12116375844052663
-0.0820971253509697       0.1108079780671574       0.11224121135191903
-0.09191708682289094      0.1108079780671574       0.10841852985451544
-0.11436252731683982      0.1108079780671574       0.11884262753303534
-0.10201734358296397      0.1108079780671574       0.10959070779100982
-0.11224766298147745      0.1108079780671574       0.1070110390095231
-0.0820971253509697       0.1108079780671574       0.1
-0.09354121889127508      0.1108079780671574       0.10000000000000002
-0.10498531243158041      0.11080797806715742      0.10000000000000002
-0.1164294059718857       0.11080797806715742      0.1
-0.11932139985604001      0.1108079780671574       0.10762184658979584
-0.0820971253509697       0.0707842372119538       0.2660849757320446
-0.0820971253509697       0.0668357157576368       0.22067303625345025
-0.0820971253509697       0.05245639467969099      0.1870435887582042
-0.0820971253509697       0.08263225433705101      0.18349475715649521
-0.0820971253509697       0.08689829609654469      0.15611237327647587
-0.0820971253509697       0.05674520901145531      0.15978698637370825
-0.0820971253509697       0.09165470990444124      0.1363488985423223
-0.0820971253509697       0.09720416674419022      0.11889312962041446
-0.0820971253509697       0.06901485452875475      0.13819619347208292
-0.0820971253509697       0.04813550682779569      0.1333083303402588
-0.0820971253509697       0.10173244383076405      0.106863348926508
-0.0820971253509697       0.09367928331277714      0.10641313225603205
-0.0820971253509697       0.07885054211263344      0.12292091137082878
-0.0820971253509697       0.083704036749574        0.11079753722893512
-0.0820971253509697       0.07294486881630248      0.10835949572807554
-0.0820971253509697       0.04250018932294637      0.11820984302400839
-0.0820971253509697       0.04578120757559917      0.107553221283408
-0.0820971253509697       0.05973084882426866      0.1161621597452332
-0.0820971253509697       0.038028525699258575     0.1071955775140302
-0.08209712535096972      0.09939595190937625      0.10000000000000002
-0.08209712535096969      0.08798392575159503      0.09999999999999999
-0.08209712535096972      0.06515987343603266      0.10000000000000002
-0.0820971253509697       0.07657189959381386      0.1
-0.0820971253509697       0.04233582112047029      0.1
-0.0820971253509697       0.05374784727825148      0.1
-0.058893516688921885     -0.1291300962329576      0.26454348625728624
-0.0665380022842327       -0.157425004262962       0.3
-0.051245521761868196     -0.1008221989419136      0.3
-0.0665380022842327       -0.15742500426296202     0.24815621633495896
-0.0512455217618682       -0.10082219894191363     0.24815621633495896
-0.058906157949390824     -0.12917688594796098     0.22807739977878072
-0.0665380022842327       -0.15742500426296202     0.20588629273972492
-0.051245521761868196     -0.1008221989419136      0.20588629273972492
-0.05875185906778492      -0.1286057719587019      0.18727055082895583
-0.05124552176186821      -0.10082219894191362     0.17264731014519558
-0.06653800228423272      -0.15742500426296202     0.17264731014519558
-0.06145640384583811      -0.13861623568499687     0.15623600879725236
-0.05557175811869015      -0.1168351089416951      0.15740454383143745
-0.051245521761868196     -0.1008221989419136      0.14706980906060635
-0.0665380022842327       -0.15742500426296197     0.14706980906060635
-0.06214188236257025      -0.14115343081024861     0.1368110680737129
-0.05660599162441487      -0.1206631679472586      0.1387778886315747
-0.0590802740423696       -0.12982135034990847     0.12423424454104906
-0.05512137327251407      -0.11516807750553454     0.11904395684423935
-0.051245521761868196     -0.1008221989419136      0.1273874745714996
-0.06309409647782721      -0.14467790743855105     0.11951213163465385
-0.0665380022842327       -0.157425004262962       0.1273874745714996
-0.051245521761868196     -0.1008221989419136      0.11224121135191903
-0.05374397528774581      -0.11006984704727615     0.10664891281107988
-0.056004701800846005     -0.11843758454532313     0.10686040293411284
-0.05904178951943839      -0.1296789057048973      0.11179773523419093
-0.06214398984893309      -0.14116123135249148     0.10662746927765868
-0.06432723385143446      -0.1492421790484003      0.10689819027673061
-0.0665380022842327       -0.157425004262962       0.11224121135191903
-0.051245521761868196     -0.1008221989419136      0.1
-0.05736251397081397      -0.12346332107033285     0.09999999999999999
-0.05430401786634108      -0.11214276000612322     0.09999999999999999
-0.06042101007528688      -0.13478388213454254     0.10000000000000002
-0.06347950617975975      -0.14610444319875215     0.1
-0.0665380022842327       -0.157425004262962       0.1
-0.04584751794547594      -0.17820143078362338     0.2645438100876872
-0.02516477521192215      -0.19897008354273202     0.3
-0.025164775211922157     -0.19897008354273205     0.24815621633495896
-0.045812377425659356     -0.178236717266816       0.22694536594882694
-0.025164775211922154     -0.19897008354273202     0.20588629273972492
-0.025164775211922157     -0.19897008354273205     0.17264731014519552
-0.04695451036350112      -0.17708984024492594     0.18591626510213333
-0.03925908574706457      -0.18481722939014736     0.15584118683369189
-0.05521130329864757      -0.16879875102223188     0.15852490220769958
-0.025164775211922147     -0.198970083542732       0.14706980906060635
-0.025164775211922157     -0.19897008354273205     0.1273874745714996
-0.03789165102206642      -0.18619034403650234     0.13489396868872003
-0.02516477521192215      -0.19897008354273202     0.11224121135191903
-0.03453474438045112      -0.18956119428023477     0.1193034753415472
-0.05356114383210968      -0.17045576476548574     0.13778918799909887
-0.03091278813142931      -0.19319819506942817     0.10660924311483477
-0.02516477521192215      -0.19897008354273252     0.1
-0.03705133517304856      -0.1870341503102184      0.10668666385432599
-0.046591328820524774     -0.17745453033713293     0.12245921012720254
-0.05827395118415774      -0.1657233817988653      0.11879926388341325
-0.043909770739101975     -0.18014722682153597     0.11123921271783388
-0.053534924842844375     -0.17048209266071515     0.10917132567675264
-0.03343942062638426      -0.19066106768677832     0.1
-0.04171406604084639      -0.18235205183082429     0.10000000000000002
-0.06043779885753795      -0.16355054613915695     0.10768744761768484
-0.04998871145530849      -0.17404303597487017     0.1
-0.0582633568697706       -0.16573402011891608     0.1
-0.022916630963881364     -0.09329438900542487     0.26454284271801304
0.00542018583280671       -0.0857644729006359      0.3
0.005420185832806711      -0.08576447290063591     0.24815621633495896
-0.02296592678825992      -0.09330748833921915     0.22622880744679413
0.00542018583280671       -0.0857644729006359      0.20588629273972492
-0.021008097013791426     -0.0927872360450049      0.185477437873495
0.005420185832806711      -0.08576447290063591     0.17264731014519558
-0.010066530226951274     -0.08987974362794973     0.15886572326914714
0.00542018583280671       -0.08576447290063588     0.14706980906060635
-0.031570854909475615     -0.09559406792595898     0.15602141302459988
-0.012075440908998508     -0.09041356960446514     0.13764209066840985
0.00542018583280671       -0.08576447290063588     0.1273874745714996
-0.005947219617339508     -0.08878512303162471     0.11908901318708234
0.00542018583280671       -0.08576447290063591     0.11224121135191903
-0.02166778447051005      -0.09296253418241084     0.122512003257094
-0.033623928895064686     -0.0961396293762563      0.13504464070320008
-0.038345793359899835     -0.09739436605093277     0.11903621073821888
-0.0031519322391118966    -0.0880423339033381      0.10783205079232044
0.00542018583280671       -0.0857644729006359      0.1
-0.012605129865478445     -0.09055432336070192     0.10914117454423197
-0.03473336574349142      -0.09643443900332743     0.10663835752917022
-0.025174340179309803     -0.09389432798598009     0.1112785058043329
-0.00591295568612829      -0.08877601810889144     0.09999999999999999
-0.043550118314431674     -0.09877730650507244     0.1066783749918204
-0.03991238024293328      -0.09781065373365808     0.1
-0.02857923872399829      -0.09479910852540253     0.10000000000000002
-0.017246097205063284     -0.09178756331714695     0.09999999999999999
0.02610423474197897       -0.1065344372608324      0.2645428458299184
0.046793412905117196      -0.1273095521804062      0.3
0.046793412905117196      -0.1273095521804062      0.24815621633495896
0.02606793186669905       -0.10649798359409396     0.22628667760096408
0.04679341290511719       -0.1273095521804062      0.20588629273972492
0.02747034155391324       -0.10790621847836347     0.1855157609560953
0.04679341290511719       -0.12730955218040615     0.17264731014519555
0.035515280567719576      -0.11598457380088527     0.15886291787307066
0.019776073219979883      -0.10017999041850241     0.1559592143070689
0.046793412905117196      -0.12730955218040624     0.1470698090606064
0.046793412905117196      -0.1273095521804062      0.12738747457149965
0.03408306528427115       -0.11454640951670775     0.1376547901736215
0.018285136905972006      -0.09868286119388844     0.13505337748081409
0.027013199256128773      -0.1074471773460293      0.12252233671700946
0.03849240364756333       -0.1189740629737161      0.11920965447569826
0.046793412905117196      -0.1273095521804062      0.1122412113519191
0.04053167026615685       -0.12102180010560537     0.10783141422475229
0.01483662215450754       -0.09522002232718246     0.11905076195967718
0.024453475463856962      -0.10487682121455366     0.11128117597660692
0.011038808403229496      -0.09140643357543035     0.10667887678927176
0.017476172788822762      -0.09787053687790712     0.10663882602989896
0.03365748710246363       -0.1141190636083977      0.10919843742614349
0.03024412207619301       -0.11069152046849803     0.1
0.046793412905117196      -0.1273095521804062      0.1
0.038518767490655095      -0.11900053632445212     0.1
0.021969476661730904      -0.10238250461254396     0.10000000000000002
0.013694831247268814      -0.09407348875658987     0.1
0.2646188733785784        -0.04166666666666654     0.09999999999999998
0.2646188733785785        -0.04166666666666652     0.04999999999999999
0.288675134594813         -2.08166817117217E-17    0.1
0.288675134594813         -2.7744366180540395E-17  0.04999999999999999
0.24056261216234404       -0.08333333333333326     0.05000000000000002
0.24056261216234406       -0.08333333333333323     0.10000000000000003
0.21650635094610962       -0.12499999999999993     0.050000000000000044
0.288675134594813         -2.7744366180540398E-17  0
0.26461887337857853       -0.041666666666666505    0
0.24056261216234406       -0.0833333333333332      0
0.21650635094610965       -0.12499999999999989     0
0.21650635094610965       -0.12499999999999989     0.1
0.1924500897298752        -0.16666666666666657     0.0500000000000001
0.19245008972987523       -0.1666666666666666      0
0.19245008972987523       -0.1666666666666666      0.10000000000000002
0.16839382851364082       -0.2083333333333333      0.050000000000000044
0.16839382851364082       -0.20833333333333331     0
0.16839382851364082       -0.20833333333333326     0.1
0.2643854856943247        5.982543990733034E-17    0.106361658869225
0.25403411844343554       8.65823904131276E-17     0.11224121135191908
0.2540341184434355        9.714451465470109E-17    0.1
0.26558112382722787       5.551488770962073E-17    0.09999999999999999
0.2738692557538477        2.563425383886105E-17    0.10672630843110853
0.27334494966361805       2.752449864397129E-17    0.12125675034732297
0.2540341184434355        8.65823904131276E-17     0.1273874745714996
0.2540341184434355        8.658239041312757E-17    0.1470698090606064
0.2771281292110204        1.3885260764540076E-17   0.1
0.288675134594813         -2.77443661805404E-17    0.14999999999999997
0.2693107140781031        4.206885164732956E-17    0.1740110024050926
0.2540341184434355        8.658239041312758E-17    0.17264731014519558
0.288675134594813         -2.7744366180540395E-17  0.19999999999999998
0.2540341184434355        8.658239041312758E-17    0.205886292739725
0.28867513459481303       -2.77443661805404E-17    0.25000000000000006
0.2540341184434355        8.65823904131276E-17     0.248156216334959
0.288675134594813         -2.7744366180540398E-17  0.3
0.2540341184434355        9.71445146547012E-17     0.3
-0.14433756729740638      0.25                     0
-0.16839382851364082      0.20833333333333331      0
-0.14433756729740638      0.25000000000000006      0.050000000000000024
-0.19245008972987523      0.1666666666666666       0
-0.1683938285136408       0.2083333333333333       0.04999999999999999
-0.14433756729740635      0.24999999999999994      0.09999999999999998
-0.21650635094610965      0.12499999999999989      0
-0.19245008972987523      0.16666666666666657      0.04999999999999993
-0.24056261216234406      0.0833333333333332       0
-0.21650635094610965      0.12499999999999989      0.04999999999999999
-0.1683938285136408       0.2083333333333333       0.09999999999999995
-0.14433756729740638      0.25                     0.14999999999999997
-0.26461887337857853      0.041666666666666505     0
-0.2405626121623441       0.08333333333333315      0.04999999999999999
-0.19245008972987523      0.16666666666666657      0.09999999999999995
-0.21650635094610957      0.12499999999999997      0.09999999999999995
-0.1683938285136408       0.2083333333333333       0.14999999999999994
-0.14433756729740638      0.25                     0.2
-0.288675134594813        -1.3191777439614462E-20  0
-0.2646188733785785       0.04166666666666646      0.04999999999999999
-0.24056261216234404      0.08333333333333323      0.09999999999999995
-0.19245008972987523      0.16666666666666657      0.14999999999999994
-0.21650635094610965      0.12499999999999989      0.14999999999999997
-0.1683938285136408       0.20833333333333331      0.2
-0.14433756729740638      0.25                     0.25
-0.19245008972987523      0.16666666666666657      0.20000000000000004
-0.1683938285136408       0.2083333333333333       0.25
-0.14433756729740638      0.25                     0.3
-0.28867513459481303      -1.3191777439614465E-20  0.050000000000000024
-0.2646188733785785       0.04166666666666649      0.09999999999999998
-0.24056261216234406      0.08333333333333318      0.14999999999999997
-0.16839382851364082      0.20833333333333331      0.30000000000000004
-0.21650635094610957      0.12499999999999997      0.2
-0.19245008972987523      0.16666666666666657      0.25
-0.2886751345948129       -1.3191777439614457E-20  0.09999999999999998
-0.2646188733785785       0.04166666666666649      0.14999999999999997
-0.24056261216234404      0.08333333333333326      0.20000000000000004
-0.19245008972987523      0.1666666666666666       0.3
-0.21650635094610965      0.12499999999999989      0.25
-0.288675134594813        -1.3191777439614462E-20  0.14999999999999997
-0.2646188733785785       0.04166666666666649      0.20000000000000007
-0.2405626121623441       0.08333333333333315      0.25
-0.21650635094610965      0.12499999999999989      0.30000000000000004
-0.288675134594813        -1.3191777439614462E-20  0.2
-0.2646188733785785       0.04166666666666646      0.25
-0.24056261216234406      0.0833333333333332       0.30000000000000004
-0.288675134594813        -1.3191777439614462E-20  0.25
-0.26461887337857853      0.041666666666666505     0.30000000000000004
-0.288675134594813        -1.3191777439614462E-20  0.3
0.12830005981991677       0.25                     0.05000000000000002
0.14433756729740638       0.25000000000000006      0.050000000000000024
0.12830005981991677       0.25                     0
0.14433756729740638       0.25                     0
0.11226255234242716       0.25                     0
0.11226255234242716       0.25                     0.05000000000000002
0.14433756729740635       0.24999999999999994      0.09999999999999998
0.12830005981991674       0.25                     0.09999999999999998
0.09622504486493755       0.25                     0
0.09622504486493755       0.25                     0.05000000000000002
0.08018753738744794       0.24999999999999997      0
0.08018753738744795       0.25                     0.05000000000000007
0.11226255234242713       0.25                     0.09999999999999998
0.09622504486493752       0.25                     0.09999999999999998
0.14433756729740638       0.25                     0.14999999999999997
0.12830005981991677       0.25                     0.1499999999999999
0.14433756729740638       0.25                     0.2
0.12830005981991677       0.25                     0.3
0.14433756729740638       0.25                     0.3
0.12830005981991677       0.25                     0.25
0.14433756729740638       0.25                     0.25
0.12830005981991677       0.25                     0.2
0.06415002990995833       0.25                     0.050000000000000044
0.0801875373874479        0.25                     0.09999999999999992
0.06415002990995834       0.25                     0
0.04811252243246871       0.25                     0
0.04811252243246872       0.25                     0.050000000000000044
0.03207501495497911       0.25                     0
0.03207501495497911       0.25                     0.04999999999999999
0.06415002990995834       0.25                     0.09999999999999998
0.11226255234242716       0.25                     0.14999999999999997
0.09622504486493755       0.25                     0.15
0.11226255234242716       0.25                     0.2
0.11226255234242716       0.25                     0.25
0.11226255234242716       0.25                     0.3
0.09622504486493755       0.25                     0.30000000000000004
0.09622504486493755       0.25                     0.25
0.09622504486493755       0.25                     0.2
0.08018753738744795       0.25                     0.14999999999999994
0.04811252243246869       0.25                     0.10000000000000003
0.08018753738744794       0.24999999999999997      0.29999999999999993
0.08018753738744795       0.25                     0.24999999999999994
0.016037507477489502      0.25000000000000006      0
0.01603750747748947       0.25                     0.0500000000000001
0.03207501495497908       0.25                     0.09999999999999998
0.06415002990995833       0.25                     0.25
-8.326672684688674E-17    0.25                     0.04999999999999999
0.0160375074774895        0.25                     0.09999999999999998
0.06415002990995833       0.25                     0.15000000000000002
0.04811252243246872       0.25                     0.14999999999999997
0.08018753738744795       0.25                     0.2