% Model:              FEM_001_surf_surf.mph 
% Version:            COMSOL 6.0.0.405      
% Date:               Sep 13 2022, 15:21    
% Dimension:          3                     
% Nodes:              6549                  
% Elements:           13687                 
% Expressions:        0                     
% Description:                              
% Length unit:        m                     
% Coordinates
-0.8057429159058327      -0.2166038998458403      0.5505632605481521       
-0.7063152505616883      -0.4117416803881083      0.5505632605481521       
-0.8057429159058327      -0.2166038998458403      0.5805632605481521       
-0.8400033544992253      -0.0002920037833770844   0.5805632605481522       
-0.7063152505616883      -0.4117416803881083      0.5805632605481521       
-0.5792984436436536      -0.3017937053325053      0.5805632605481522       
-0.6454909327107677      -0.1640512386310788      0.5805632605481522       
-0.6708218071281725      -0.001186886128801404    0.5805632605481522       
-0.8400033544992253      -0.0002920037833770706   0.5505632605481522       
-0.645880785494542       0.1641053740616162       0.5805632605481524       
-0.8057429159058327      0.2160198922790865       0.5805632605481523       
-0.8057429159058327      0.2160198922790865       0.5505632605481523       
-0.551453031103956       -0.5666038998458405      0.5505632605481521       
-0.5294771359084748      -0.3387501774763405      0.5505632605481522       
-0.4742357417498538      -0.4603865021965154      0.5505632605481521       
-0.551453031103956       -0.5666038998458405      0.5805632605481521       
-0.5848226463847598      -0.1665700551578408      0.5505632605481522       
-0.5064721650528823      -0.2352988834371049      0.5805632605481522       
-0.4653135214009889      -0.4024912369602098      0.5805632605481521       
-0.5224558915218281      -0.1362006535048688      0.5805632605481522       
-0.534620692532369       -0.0003852766572148816   0.5805632605481523       
-0.6143832088853503      0.02101545930120962      0.5505632605481523       
-0.5238269016786344      0.1391034195242517       0.5805632605481524       
-0.6149387927967009      0.2017007764139244       0.5505632605481524       
-0.5798875848544186      0.3027994948423379       0.5805632605481524       
-0.7063152505616884      0.4111576728213542       0.5805632605481524       
-0.5077994250869985      0.2381710560446382       0.5805632605481524       
-0.5999887259790381      0.3343193378282042       0.5505632605481524       
-0.7063152505616885      0.4111576728213543       0.5505632605481524       
-0.5514530311039564      0.5660198922790863       0.5805632605481525       
-0.4114840898834414      0.1473797019643181       0.5805632605481524       
-0.4114082843024853      0.003825767982181726     0.5805632605481523       
-0.4065555692662057      -0.1374359075163207      0.5805632605481522       
-0.4183476505865997      -0.2685417138753045      0.5805632605481522       
0.689810570854985        -0.08677455045032033     0.6200000000000003       
0.6809639839883704       -0.065309154660269       0.6100000000000002       
0.7114354051579008       -0.1218895786040337      0.6100000000000002       
0.7453028950995773       -0.1563654284935013      0.6200000000000003       
0.6716307129727719       -0.02545068929110759     0.6100000000000002       
0.6980484720408925       -0.03463460230988268     0.6100000000000002       
0.6700000000000025       -7.282336575716656E-16   0.6100000000000002       
0.671630202046743        0.02544671038606809      0.6100000000000002       
0.7016327645191794       0.005428468789468469     0.6100000000000002       
0.6931500555242017       -0.01561494968514388     0.6100000000000002       
0.7218939856375914       -0.01967787721832893     0.6100000000000002       
0.6700000000000025       -7.282336575716656E-16   0.6200000000000002       
0.6809628505651804       0.06530587523161278      0.6100000000000002       
0.711302174653976        0.03303450358029194      0.6100000000000002       
-0.356315250561688       -0.6660315651899845      0.5505632605481521       
-0.356315250561688       -0.6660315651899845      0.5805632605481521       
-0.2495074800273863      -0.6916738421999735      0.5655632605481521       
-0.3609644918627286      -0.3046638142365997      0.5505632605481522       
-0.3414811356582826      -0.4753795781923169      0.5505632605481521       
-0.3135533712389892      -0.4707853452522378      0.5805632605481521       
-0.3939427001904344      -0.1313293058002594      0.5505632605481522       
-0.2879545106371336      -0.303615365753773       0.5805632605481523       
-0.4219202355104916      0.04665859736816952      0.5505632605481523       
-0.444050655116492       0.2219569177873734       0.5505632605481524       
-0.4197577715809936      0.2724037694522145       0.5805632605481524       
-0.4658114513238515      0.4036475450533047       0.5805632605481525       
-0.4782853265156692      0.3897533346290231       0.5505632605481525       
-0.5514530311039564      0.5660198922790863       0.5505632605481525       
-0.3563152505616883      0.6654475576232305       0.5805632605481525       
-0.3135502383256175      0.4711617388966277       0.5805632605481525       
-0.2886073521323921      0.3064297008698502       0.5805632605481525       
-0.2777526651571774      0.1585116461758819       0.5805632605481525       
-0.2758382884494082      0.006695894482405683     0.5805632605481524       
-0.279367403909492       -0.1513635369130337      0.5805632605481523       
-0.3563152505616883      0.6654475576232305       0.5505632605481525       
-0.2495074800273871      0.6910898346332195       0.5655632605481526       
1.153219920071097        0.2164786347212486       0.7560898117013037       
1.158787334678236        0.2087873346782331       0.7700000000000002       
1.150000000000003        0.2299999999999996       0.7700000000000002       
0.7759624559758455       -0.1765076932667196      0.6100000000000001       
0.8254963689215979       -0.1949822467125971      0.6200000000000001       
0.8699109566815953       -0.1999999800169775      0.6100000000000002       
0.9145036310784074       -0.1949822467125972      0.6200000000000002       
0.9638939657988671       -0.1765840987102774      0.6100000000000002       
0.9946971049004282       -0.1563654284935013      0.6200000000000002       
1.028524082989197        -0.1219422434981773      0.6100000000000002       
1.05018942914502         -0.08677455045032016     0.6200000000000002       
1.059036451543129        -0.06530789452228215     0.6100000000000002       
1.068369281010835        -0.0254507361408682      0.6100000000000002       
0.8413025101051965       -0.1256148419253232      0.6200000000000002       
0.7895846690836614       -0.1007671953039723      0.6200000000000002       
0.7326593827299076       -0.06299152366939055     0.6100000000000002       
0.7765105265697516       -0.1037061331344986      0.6100000000000002       
0.7536412034419632       -0.05591235554310146     0.6200000000000002       
0.6898105708549849       0.08677455045031893      0.6200000000000003       
0.7114422510788334       0.121898480767698        0.6100000000000003       
0.7453028950995771       0.1563654284934999       0.6200000000000003       
0.7759768812728888       0.1765153764624872       0.6100000000000003       
0.8254963689215981       0.1949822467125958       0.6200000000000002       
0.7510670534723846       -0.02140454341582382     0.6100000000000002       
0.7389284555981684       0.003155832616347814     0.6100000000000002       
0.7362973135488512       0.06977886637297129      0.6100000000000002       
0.7765318543978645       0.1027123035818266       0.6100000000000002       
0.7405458337312166       0.0003340797278001924    0.6200000000000002       
0.756254087896915        0.03091790414101228      0.6100000000000002       
1.070000000000003        -5.55610119068661E-16    0.6100000000000002       
1.040720614390529        -0.01052246867751241     0.6100000000000002       
1.043852414955613        0.007875535921436557     0.6100000000000002       
1.068369977628503        0.02544531099139317      0.6100000000000002       
1.021741245002097        0.006490502645860597     0.6100000000000002       
1.027102772418124        -0.03726506426104814     0.6100000000000002       
1.014872074822563        -0.009251255143683013    0.6100000000000002       
0.9998543745065505       -0.07518472504814705     0.6100000000000002       
1.070000000000003        -5.55610119068661E-16    0.6200000000000002       
1.05018942914502         0.08677455045031907      0.6200000000000003       
1.059039027143011        0.06530044189277237      0.6100000000000002       
1.028522648025585        0.1219441082660343       0.6100000000000002       
0.9946971049004281       0.1563654284935          0.6200000000000003       
0.9638904462499782       0.1765859697718544       0.6100000000000003       
0.914503631078407        0.1949822467125958       0.6200000000000002       
0.869918042413479        0.1999999830707534       0.6100000000000003       
0.7517113844517331       0.0572681901525314       0.6200000000000002       
1.023504929412296        0.03566513881716704      0.6100000000000002       
0.9971796331593794       0.07142175391353922      0.6100000000000002       
0.9938880229995658       0.01034614970733246      0.6100000000000002       
0.8912126653217695       0.4887873346782332       0.7700000000000004       
0.8700000000000028       0.5099999999999997       0.7700000000000002       
0.8700000000000028       0.4799999999999995       0.7700000000000002       
0.8912126653217695       0.5312126653217663       0.7700000000000004       
0.9000000000000029       0.5099999999999997       0.7700000000000002       
0.8700000000000027       0.5399999999999998       0.7700000000000001       
0.8487873346782363       0.4887873346782332       0.7700000000000002       
0.8487873346782362       0.5312126653217663       0.7700000000000002       
0.8400000000000026       0.5099999999999997       0.7700000000000002       
0.8435375955041234       0.4958670191291265       0.7570175944788184       
0.8964649740502184       -0.4958718313811946      0.7569786257449269       
0.8912126653217693       -0.4887873346782341      0.7700000000000001       
0.9000000000000028       -0.5100000000000006      0.7700000000000002       
0.8700000000000028       -0.5100000000000006      0.7700000000000002       
0.8487873346782363       -0.4887873346782341      0.7700000000000002       
0.8700000000000028       -0.4800000000000005      0.7700000000000002       
0.8912126653217692       -0.531212665321767       0.7700000000000002       
0.8700000000000028       -0.5400000000000006      0.7700000000000002       
0.8487873346782363       -0.531212665321767       0.7700000000000002       
0.8400000000000027       -0.5100000000000006      0.7700000000000002       
-0.1400033544992246      -0.700292003783377       0.5805632605481522       
-0.1607506962578536      -0.4748471266115682      0.5505632605481522       
-0.1400033544992246      -0.700292003783377       0.5505632605481522       
-0.1372257765064885      -0.4909478762814923      0.5805632605481522       
-0.1859661077244939      -0.2826401452675108      0.5505632605481523       
-0.1349398675858118      -0.3130471384832877      0.5805632605481523       
-0.2140433394851839      -0.1032832220700579      0.5505632605481524       
-0.1400033544992253      0.6997079962166232       0.5505632605481526       
-0.1400033544992253      0.6997079962166232       0.5805632605481527       
-0.1378350639150786      0.4926593465000758       0.5805632605481527       
-0.1335752896685724      -0.1537657383917957      0.5805632605481523       
-0.2420240765715752      0.07451990927555846      0.5505632605481524       
-0.2706662572157388      0.254983570500689        0.5505632605481525       
-0.3059508121721445      0.4452917776737261       0.5505632605481526       
-0.1369513014491873      0.3182248122872233       0.5805632605481525       
-0.1342791128190826      0.1636226650111844       0.5805632605481525       
-0.1332010171107493      0.008039686300257858     0.5805632605481524       
-0.1183227443220137      0.474776090695848        0.5505632605481526       
0.8489909550078782       -0.4885845843253309      0.7474692365686314       
0.8815373966847757       -0.4823072486426834      0.7438006373574769       
1.180000000000003        0.2299999999999996       0.7700000000000002       
1.158787334678237        0.2512126653217661       0.7700000000000004       
1.180000000000003        0.2599999999999996       0.7700000000000002       
1.201212665321769        0.2512126653217661       0.7700000000000001       
1.180000000000003        0.1999999999999996       0.7700000000000002       
1.201212665321769        0.2087873346782331       0.7700000000000001       
1.210000000000003        0.2299999999999996       0.7700000000000002       
1.206457637930453        0.2158580978952196       0.7580972172791263       
1.206457637930453        0.2441419021047795       0.7581102598927021       
1.191482251885859        0.2577156614864182       0.7453312691705688       
1.160661101751476        0.2529348428059383       0.74764167868047         
1.150000000000003        0.2299999999999996       0.740014129324468        
1.165988739747276        0.2034729461468038       0.7443451174807463       
1.19149412962328         0.2022892622941335       0.7442146864161376       
0.8450578597332806       -0.1125863260194905      0.6100000000000002       
0.8512779760394378       -0.08181203335293639     0.6200000000000002       
0.898630134234466        -0.1255981422643754      0.6200000000000002       
0.9626702495575257       -0.1081533936308617      0.6100000000000002       
0.904973432630587        -0.1205165182916505      0.6100000000000002       
0.9501729072081324       -0.1004972410846705      0.6200000000000002       
0.9862124307157345       -0.05574527167995919     0.6200000000000002       
0.8886756724857819       -0.08179496533997231     0.6200000000000002       
0.8211491408952409       -0.07015211400293152     0.6100000000000002       
0.8174678442624764       -0.06577577922427082     0.6200000000000002       
0.7873773206137227       -0.04211937995129759     0.6100000000000002       
0.7940593698608335       -0.03637514602690606     0.6200000000000002       
0.7882310848033581       0.1015171059727283       0.6200000000000002       
0.8389156067131981       0.1269993855832747       0.6200000000000002       
0.8304055827363982       0.1225142297086565       0.6100000000000002       
0.7716497848455811       -0.004669557203109994    0.6100000000000002       
0.7852695496689397       0.0002135198628694921    0.6200000000000002       
0.783587118126249        0.02354046929160696      0.6100000000000002       
0.7868509637830464       0.05661195377875084      0.6100000000000002       
0.8193243062362633       0.07442717533561151      0.6100000000000002       
0.7931864154407484       0.03701235825481441      0.6200000000000002       
0.9991291643818054       0.0001768661307446309    0.6200000000000002       
0.9834905710924156       -0.02759767617836094     0.6100000000000002       
0.9458734416518809       -0.03624123590187867     0.6200000000000002       
0.9520033730950255       -0.04651087240108401     0.6100000000000002       
0.8980289723249144       0.1260333777650652       0.6200000000000002       
0.9584613899945285       0.104137846668432        0.6100000000000002       
0.9502975532071789       0.101016936426948        0.6200000000000002       
0.9862041049019543       0.05609408737769692      0.6200000000000002       
0.8910145174997347       0.1183585930253126       0.6100000000000002       
0.8156572971002756       0.06670560195920255      0.6200000000000002       
0.9675005383638854       -0.001103747385086       0.6100000000000002       
0.888145129302458        0.0824249587940734       0.6200000000000002       
0.9457130411922057       0.03665730426367668      0.6200000000000002       
0.9530317843964466       0.06104010171021812      0.6100000000000002       
0.9745900209764573       0.03831859960099203      0.6100000000000002       
0.9658005623771629       0.01654000227072574      0.6100000000000002       
1.153346456200379        -0.2437691177248772      0.7577239605218845       
1.158787334678236        -0.2512126653217669      0.7700000000000002       
1.150000000000003        -0.2300000000000005      0.7700000000000002       
1.201212665321769        -0.251212665321767       0.7700000000000004       
1.180000000000003        -0.2300000000000005      0.7700000000000002       
1.180000000000003        -0.2600000000000005      0.7700000000000001       
1.201212665321769        -0.208787334678234       0.7700000000000002       
1.180000000000003        -0.2000000000000005      0.7700000000000002       
1.158787334678237        -0.208787334678234       0.7700000000000004       
1.210000000000003        -0.2300000000000005      0.7700000000000002       
1.206457637930453        -0.2441419021047804      0.7581240553622457       
1.191496957601476        -0.2577095645203952      0.7446729751279624       
1.205373455315027        -0.2139941334075139      0.754709556330341        
1.185484060175133        -0.2005055075650466      0.7527486932291316       
1.159276873015123        -0.2083077892328022      0.7522089980933262       
0.8584827495824727       0.4822988638713153       0.7438577746748999       
0.8910017718310355       0.4885774515998386       0.7474253607929134       
0.8487840689009658       0.5312104754213786       0.751199584849032        
0.8906565527946063       0.5317556159794142       0.7513980830115061       
0.870186066262904        0.5399994229835474       0.7437403710653955       
0.9000000000000028       0.5099999999999997       0.741432434232146        
0.8400000000000027       0.5099999999999997       0.7415426326218464       
0.659413733772545        0.01499999999999957      0.5600000000000003       
0.6812935149944128       0.00499999999999956      0.5600000000000001       
0.6394612408231521       0.004999999999999561     0.5600000000000001       
0.6373143509631922       0.00499999999999956      0.5800000000000001       
0.8493399817464629       -0.5317523250656895      0.7513586168720844       
0.8912195833898826       -0.53120682156194        0.751198767495965        
0.8698025615665694       -0.5399993502940487      0.7436706576874174       
0.9000000000000028       -0.5100000000000006      0.7414485106884086       
0.8400000000000027       -0.5100000000000007      0.7414485106884086       
0.6394499815416945       -0.00500000000000045     0.5600000000000003       
0.6070157320502955       -0.005000000000000449    0.5600000000000002       
0.6373143509631922       -0.005000000000000449    0.5800000000000003       
0.01716682954901106      -0.3005679529996269      0.5805632605481523       
0.07630854156323853      -0.6660315651899843      0.5805632605481522       
0.0267902531707909       -0.4452714912742997      0.5505632605481522       
0.07630854156323853      -0.6660315651899843      0.5505632605481522       
0.03872471208272258      -0.4683874230197621      0.5805632605481523       
-0.007971041599891872    -0.2547318236473191      0.5505632605481523       
0.0109586104321911       -0.1484057518465859      0.5805632605481523       
-0.03593477361625449     -0.07585015377116756     0.5505632605481524       
0.6189230455365602       0.01499999999999957      0.5600000000000002       
0.6419008759230772       0.01499999999999958      0.5800000000000004       
0.6070191750373919       0.004999999999999561     0.5600000000000002       
0.6021010253525688       -0.01500000000000046     0.5600000000000003       
0.5853906684887837       -0.005000000000000449    0.5600000000000001       
0.1465478015384015       -0.2672578259629875      0.5805632605481524       
0.141388422104523        -0.1384800932550317      0.5805632605481524       
0.0763085415632381       0.6654475576232307       0.5505632605481527       
0.07630854156323787      0.6654475576232308       0.5805632605481528       
0.03763640018108406      0.4709776603656405       0.5805632605481528       
0.007870241502982019     0.008021614040111012     0.5805632605481524       
-0.06382767906989414     0.102061052326769        0.5505632605481524       
-0.09239524316587962     0.2828097064749336       0.5505632605481525       
0.01440823515989143      0.3070318151425064       0.5805632605481525       
0.008001377168812581     0.1589600767906195       0.5805632605481525       
0.0622919247557938       0.4750537614153613       0.5505632605481527       
0.1445511343894767       0.2728546169066425       0.5805632605481527       
0.1378407246272791       0.1476404840350343       0.5805632605481527       
0.1389110371637432       0.006425890395597494     0.5805632605481525       
0.595638897033425        0.004999999999999562     0.5800000000000003       
0.5991564703519536       0.01499999999999957      0.5800000000000002       
0.5796878108782025       0.004999999999999561     0.5696566171253185       
0.5700000000000026       0.004999999999999561     0.5800000000000002       
0.8545756304699488       -0.4842689132642962      0.7226272330609457       
0.8868531861855161       -0.4851812547578167      0.7165689542286183       
1.210000000000003        0.2299999999999996       0.7444248016767545       
1.189731773272603        0.2583776776528785       0.7250695217447096       
1.162661967712528        0.2544824965311639       0.7101240041955985       
1.150000000000003        0.2299999999999996       0.6923907768684474       
1.163299832155097        0.2050780339067722       0.7090673133637594       
1.193287867804759        0.2031032981723903       0.7211628468592503       
1.158945247716816        0.2086295202137702       0.6717991887270198       
0.8817999495135256       -0.08180949638435947     0.6100000000000002       
0.8544681342428272       -0.05862982311130852     0.6200000000000002       
0.8560388519941768       -0.0670781116957353      0.6100000000000002       
0.8823894325741147       -0.05425880805812809     0.6200000000000002       
0.9172431882584832       -0.0682222114091703      0.6100000000000002       
0.9224973423753937       -0.06556788457300253     0.6200000000000002       
0.8937139605004735       -0.05485528036722779     0.6100000000000002       
0.8351130063195809       -0.04352495031876913     0.6200000000000002       
0.8244753676248063       -0.04206897622218025     0.6100000000000002       
0.8452139096450791       -0.04704991125926191     0.6100000000000002       
0.8585361352786828       -0.04140884079404579     0.6200000000000002       
0.7991384487808352       -0.01023712488705509     0.6100000000000002       
0.8195420680221529       -0.02407777067685311     0.6200000000000002       
0.8152192316494958       -0.02220795686356466     0.6100000000000002       
0.8500850355082249       0.08248099070539854      0.6200000000000002       
0.8534056004499008       0.08292934573429911      0.6100000000000002       
0.8424375320992723       0.06040239901413972      0.6100000000000002       
0.7974075749969364       0.008717187475145022     0.6100000000000002       
0.8137927176579942       0.0002103289367406984    0.6200000000000002       
0.8190705619451938       0.02453131696177947      0.6200000000000002       
0.8037124278949552       0.02938796742065963      0.6100000000000002       
0.8138737573991758       0.04798847940063006      0.6100000000000002       
0.8300441851737874       0.04975663970579455      0.6100000000000002       
0.8343551829928072       0.04403416010759408      0.6200000000000002       
0.880000000000003        -0.01000000000000039     0.6600000000000001       
0.8600000000000029       -0.01000000000000038     0.6600000000000001       
0.8701542785343717       -0.01999880983586793     0.6430580935940224       
0.8600000000000029       0.009999999999999776     0.6600000000000001       
0.8500011901641353       -0.000154278534368996    0.6430580935940224       
0.8800000000000032       0.009999999999999632     0.6600000000000001       
0.8698457214656343       0.01999880983586731      0.6430580935940224       
0.9541962197370534       0.0002335039333313279    0.6200000000000002       
0.9496470246751265       -0.0164070495930697      0.6100000000000002       
0.9202842524794859       -0.02406674556624722     0.6200000000000002       
0.9047962522843644       -0.04350170165735254     0.6200000000000002       
0.9239829669382967       -0.03812786305161445     0.6100000000000002       
0.9333529150529026       -0.02348444312740687     0.6100000000000002       
0.9150901697868982       0.07252935906417536      0.6100000000000002       
0.9222389197487438       0.06595821199999256      0.6200000000000002       
0.8819581867206722       0.0675262391190205       0.6100000000000002       
0.8568678944444209       0.05471886495623812      0.6200000000000002       
0.9442728947915608       0.006002918064354702     0.6100000000000002       
0.9258057090801552       0.0001285400000668163    0.6200000000000002       
0.8810517580288777       0.05995581026873895      0.6200000000000002       
0.920188041523044        0.02433515486054767      0.6200000000000002       
0.9045792524679761       0.04378917296515892      0.6200000000000002       
0.9181175327853359       0.04706838395267063      0.6100000000000002       
0.94247589690927         0.02971317904007666      0.6100000000000002       
0.8899988098358704       0.0001542785343682319    0.6430580935940224       
1.170000000000003        0.009999999999999567     0.5600000000000002       
1.190000000000003        0.01440758309853299      0.5600000000000002       
1.170000000000003        -0.01000000000000045     0.5600000000000002       
1.090000000000002        0.6999999999999996       0.3499999999999998       
1.088042260651743        0.7049999999999996       0.3376393202247998       
1.090000000000002        0.7099999999999996       0.3499999999999998       
1.082360679775           0.7099999999999995       0.3735114100916987       
1.166203148319392        -0.2566391982556391      0.7452439420559861       
1.150000000000003        -0.2300000000000005      0.743800583695039        
1.210000000000003        -0.2300000000000005      0.7443118131578468       
1.192577032199357        -0.2572363408162044      0.7226916781217777       
1.197469309138552        -0.2056110016970402      0.7272339215337574       
1.164313917967003        -0.2044276158629278      0.7271690952242078       
1.190000000000003        -0.03551965667597509     0.5600000000000001       
1.170000000000003        -0.0523746931461955      0.5600000000000002       
0.8529765388435169       0.4852977375478756       0.7166020870763335       
0.8852883374086197       0.484187856747641        0.7226493665330915       
0.8544238406675531       0.5356394863530868       0.7221576159583317       
0.887173937029706        0.5345978837890534       0.7217550875896953       
0.9000000000000028       0.5099999999999997       0.6984340843312811       
0.8400000000000027       0.5099999999999997       0.6985525780372072       
1.190000000000003        -3.582203977892107E-16   0.5800000000000002       
1.126429508789764        -0.01000000000000045     0.5600000000000002       
1.170000000000003        -0.01000000000000045     0.5800000000000002       
0.6812924662072432       -0.005000000000000449    0.5600000000000002       
0.6452302934954344       -0.01500000000000046     0.5600000000000002       
0.6419008759230771       -0.01500000000000046     0.5800000000000002       
0.710555917908114        0.01499999999999957      0.5600000000000002       
0.7050390226918486       -0.005000000000000449    0.5800000000000001       
0.707706019547073        0.01499999999999957      0.5800000000000002       
0.7282465931704651       0.004999999999999561     0.5600000000000002       
0.7050390226918488       0.00499999999999956      0.5800000000000001       
0.8528081298877492       -0.534585353404892       0.7216318504866664       
0.8855698937089798       -0.5356432917132569      0.7220074167684657       
0.9000000000000028       -0.5100000000000006      0.6981946991902404       
0.8400000000000027       -0.5100000000000006      0.69819469919024         
0.5867777863156968       -0.2164740930052358      0.7573064676474309       
0.5812126653217691       -0.208787334678234       0.7700000000000002       
0.5900000000000026       -0.2300000000000005      0.7700000000000002       
0.5991564703519537       -0.01500000000000046     0.5800000000000002       
0.595638897033425        -0.00500000000000045     0.5800000000000003       
0.5792726993447382       -0.005000000000000449    0.5692651666458917       
0.1989555309930926       -0.3900276501010307      0.5505632605481523       
0.1894541586210781       -0.4013666259889533      0.5805632605481523       
0.2714463221055066       -0.56660389984584        0.5805632605481523       
0.2714463221055066       -0.56660389984584        0.5505632605481523       
0.5700000000000026       -0.005000000000000449    0.5600000000000002       
0.144228135476716        -0.04761417883260414     0.5505632605481525       
0.1655928487069134       -0.2219670233793074      0.5505632605481524       
0.2714463221055061       0.5660198922790867       0.5505632605481527       
0.5907451825758933       0.01499999999999957      0.5600000000000001       
0.5853906658291095       0.004999999999999561     0.5600000000000002       
0.5700000000000026       2.559999555222515E-09    0.5671675343707497       
0.5700000000000026       0.004999999999999561     0.5600000000000002       
0.5762154340832525       0.004999999999999561     0.5661554612055075       
0.5700000000000026       -0.01500000000000046     0.5600000000000002       