% Model:              Box_wing_Ray_Matlab_test.mph
% Version:            COMSOL 6.0.0.405
% Date:               Sep 19 2022, 15:20
% Dimension:          3
% Nodes:              394
% Elements:           518
% Expressions:        1
% Description:        Material settings
% Length unit:        m
% Coordinates
-0.13197623724675522      0.0495143221903817       -0.2839148647418255
-0.13197623724675522      0.024757161095190605     -0.2839148647418255
-0.13197623724675522      0.0495143221903817       -0.2555546957560851
-0.13197623724675522      0.02475716109519066      -0.2555546957560851
-0.13197623724675522      0.0495143221903817       -0.22719452677034502
-0.13197623724675522      0.024757161095190605     -0.22719452677034502
-0.13197623724675522      -2.638948087829718E-16   -0.2839148647418255
-0.13197623724675522      -2.7755575615628914E-16  -0.2555546957560851
-0.13197623724675522      -2.638948087829718E-16   -0.227194526770345
-0.13197623724675522      -0.02475716109519114     -0.2839148647418255
-0.13197623724675522      -0.02475716109519114     -0.22719452677034502
-0.13197623724675522      -0.02475716109519116     -0.2555546957560851
-0.13197623724675522      -0.0495143221903817      -0.2839148647418255
-0.13197623724675522      -0.0495143221903817      -0.22719452677034502
-0.13197623724675522      -0.0495143221903817      -0.2555546957560851
0.0697288849194825        0.0495143221903817       0
0.0697288849194825        0.0495143221903817       0.01
0.0697288849194825        0.0371357416427863       0.005
0.06972888491948251       0.024757161095190917     0
0.06972888491948251       0.024757161095190917     0.010000000000000002
0.0697288849194825        4.2717565595928875E-17   0
0.0697288849194825        4.2717565595928875E-17   0.009999999999999998
0.0697288849194825        -0.02475716109519083     0
0.0697288849194825        -0.03713574164278627     0.005
0.0697288849194825        -0.0495143221903817      0
0.0697288849194825        -0.02475716109519083     0.010000000000000002
0.0697288849194825        -0.0495143221903817      0.01
0.0697288849194825        -0.0495143221903817      0
0.0697288849194825        -0.0495143221903817      0.01
0.0418373309516895        -0.0495143221903817      0
0.04083920054523905       -0.04951432219038171     0.01
0.013945776983896499      -0.0495143221903817      0
0.011949516170995617      -0.04951432219038172     0.010000000000000004
-0.013945776983896499     -0.0495143221903817      0
-0.01694016820324783      -0.04951432219038171     0.010000000000000004
-0.0418373309516895       -0.0495143221903817      0
-0.04582985257749127      -0.04951432219038171     0.01
-0.08511791190315895      -0.049514322190381696    -0.008449529092185517
-0.07471953695173472      -0.04951432219038171     0.010000000000000002
-0.1036092213259782       -0.0495143221903817      0.01
-0.0697288849194825       -0.0495143221903817      0
-0.06662660248033979      -0.0495143221903817      -0.026899058184371098
-0.05119220019339391      -0.04951432219038171     -0.019857783940883163
-0.04813529305752063      -0.04951432219038171     -0.0453485872765567
-0.03265551546730533      -0.04951432219038171     -0.03971556788176634
-0.029643983634701464     -0.049514322190381696    -0.06379811636874225
-0.014118830741216743     -0.0495143221903817      -0.05957335182264949
-0.011152674211882315     -0.0495143221903817      -0.08224764546092783
0.004417853984871842      -0.0495143221903817      -0.07943113576353267
0.007338635210936853      -0.049514322190381696    -0.10069717455311342
0.022954538710960433      -0.04951432219038171     -0.09928891970441583
0.025829944633756003      -0.0495143221903817      -0.119146703645299
0.04149122343704905       -0.0495143221903817      -0.119146703645299
0.025829944633756013      -0.0495143221903817      -0.14615865942656067
0.041491223437049043      -0.049514322190381696    -0.1466080638280534
0.025829944633756007      -0.049514322190381696    -0.17317061520782212
0.04149122343704904       -0.04951432219038172     -0.17406942401080785
0.02582994463375601       -0.04951432219038171     -0.2001825709890836
0.04149122343704904       -0.0495143221903817      -0.2015307841935622
0.029018123935634868      -0.0495143221903817      -0.2699594824497018
0.041491223437049         -0.0495143221903817      -0.2839148647418255
0.04149122343704903       -0.0495143221903817      -0.256453504559071
0.04149122343704904       -0.04951432219038171     -0.22899214437631665
0.025829944633756003      -0.0495143221903817      -0.22719452677034502
0.016545024434220748      -0.0495143221903817      -0.25600410015757813
0.012579979989748342      -0.049514322190381696    -0.283914864741826
-4.7108567966273494E-4    -0.04951432219038171     -0.22719452677034505
-0.008401174568607526     -0.0495143221903817      -0.25555469575608525
-0.016331263457552314     -0.04951432219038169     -0.2839148647418259
-0.026772115993081234     -0.0495143221903817      -0.22719452677034502
-0.036007311448967114     -0.0495143221903817      -0.25555469575608525
-0.045242506904852986     -0.0495143221903817      -0.2839148647418259
-0.05307314630649973      -0.0495143221903817      -0.22719452677034502
-0.0636134483293267       -0.0495143221903817      -0.25555469575608525
-0.07415375035215366      -0.04951432219038171     -0.2839148647418259
-0.07937417661991823      -0.04951432219038171     -0.22719452677034502
-0.09121958520968629      -0.0495143221903817      -0.25555469575608525
-0.10306499379945433      -0.049514322190381696    -0.2839148647418259
-0.10567520693333673      -0.0495143221903817      -0.22719452677034505
-0.11159791122822076      -0.0495143221903817      -0.25555469575608514
-0.13197623724675522      -0.0495143221903817      -0.2839148647418255
-0.13197623724675522      -0.0495143221903817      -0.22719452677034502
-0.13197623724675522      -0.0495143221903817      -0.2555546957560851
0.0697288849194825        0.0495143221903817       0
0.0418373309516895        0.0495143221903817       0
0.0697288849194825        0.0495143221903817       0.01
0.040839200545239054      0.04951432219038171      0.010000000000000002
0.013945776983896499      0.0495143221903817       0
0.011949516170995616      0.04951432219038171      0.01
-0.013945776983896499     0.0495143221903817       0
-0.01694016820324783      0.04951432219038171      0.010000000000000004
-0.0418373309516895       0.0495143221903817       0
-0.045829852577491274     0.04951432219038172      0.010000000000000004
-0.08511791190315895      0.04951432219038171      -0.008449529092185517
-0.1036092213259782       0.0495143221903817       0.01
-0.07471953695173471      0.04951432219038171      0.01
-0.0697288849194825       0.0495143221903817       0
-0.0666266024803398       0.04951432219038171      -0.02689905818437112
-0.051192200193393905     0.049514322190381696     -0.019857783940883156
-0.04813529305752064      0.04951432219038171      -0.0453485872765567
-0.03265551546730533      0.0495143221903817       -0.03971556788176633
-0.029643983634701464     0.049514322190381696     -0.06379811636874226
-0.014118830741216745     0.0495143221903817       -0.05957335182264949
-0.011152674211882303     0.049514322190381696     -0.08224764546092783
0.004417853984871841      0.04951432219038171      -0.07943113576353268
0.00733863521093685       0.049514322190381696     -0.10069717455311343
0.02295453871096043       0.04951432219038171      -0.09928891970441583
0.025829944633756003      0.0495143221903817       -0.119146703645299
0.04149122343704905       0.0495143221903817       -0.119146703645299
0.02582994463375601       0.04951432219038171      -0.1461586594265607
0.041491223437049043      0.0495143221903817       -0.14660806382805341
0.02582994463375601       0.0495143221903817       -0.17317061520782212
0.04149122343704904       0.0495143221903817       -0.17406942401080783
0.02582994463375601       0.0495143221903817       -0.2001825709890836
0.04149122343704904       0.049514322190381696     -0.20153078419356224
0.029018123935634868      0.0495143221903817       -0.26995948244970214
0.04149122343704903       0.0495143221903817       -0.25645350455907107
0.041491223437049         0.0495143221903817       -0.283914864741826
0.016545024434220748      0.0495143221903817       -0.2560041001575783
0.04149122343704903       0.0495143221903817       -0.22899214437631663
0.025829944633756003      0.0495143221903817       -0.22719452677034502
0.012579979989748337      0.0495143221903817       -0.2839148647418259
-0.008401174568607533     0.0495143221903817       -0.2555546957560855
-4.710856796627243E-4     0.0495143221903817       -0.22719452677034505
-0.016331263457552335     0.04951432219038171      -0.283914864741826
-0.04524250690485299      0.04951432219038171      -0.2839148647418259
-0.036007311448967114     0.0495143221903817       -0.25555469575608547
-0.02677211599308123      0.04951432219038171      -0.22719452677034502
-0.07415375035215364      0.04951432219038169      -0.28391486474182587
-0.0636134483293267       0.0495143221903817       -0.25555469575608547
-0.05307314630649973      0.0495143221903817       -0.22719452677034502
-0.13197623724675522      0.0495143221903817       -0.2555546957560851
-0.11159791122822074      0.0495143221903817       -0.25555469575608525
-0.13197623724675522      0.0495143221903817       -0.2839148647418255
-0.10306499379945433      0.049514322190381696     -0.28391486474182587
-0.09121958520968627      0.0495143221903817       -0.25555469575608547
-0.07937417661991822      0.0495143221903817       -0.22719452677034502
-0.10567520693333673      0.04951432219038171      -0.22719452677034505
-0.13197623724675522      0.0495143221903817       -0.22719452677034502
0.012579979989748337      0.0495143221903817       -0.2839148647418259
0.041491223437049         0.0495143221903817       -0.283914864741826
0.012579979989748337      0.02475716109519055      -0.283914864741826
0.041491223437049         0.024757161095190605     -0.283914864741826
0.041491223437049         -2.638948087829718E-16   -0.283914864741826
0.012579979989748344      -2.7755575615628914E-16  -0.283914864741826
0.04149122343704901       -0.02475716109519114     -0.283914864741826
0.012579979989748347      -0.02475716109519116     -0.283914864741826
0.041491223437049         -0.0495143221903817      -0.2839148647418255
0.012579979989748342      -0.049514322190381696    -0.283914864741826
-0.016331263457552335     0.04951432219038171      -0.283914864741826
-0.016331263457552328     0.024757161095190605     -0.283914864741826
-0.01633126345755232      -2.7755575615628914E-16  -0.283914864741826
-0.01633126345755232      -0.02475716109519116     -0.283914864741826
-0.016331263457552314     -0.04951432219038169     -0.2839148647418259
-0.04524250690485299      0.04951432219038171      -0.2839148647418259
-0.04524250690485297      0.02475716109519055      -0.283914864741826
-0.07415375035215364      0.04951432219038169      -0.28391486474182587
-0.07415375035215366      0.02475716109519066      -0.2839148647418259
-0.10306499379945433      0.049514322190381696     -0.28391486474182587
-0.10306499379945433      0.024757161095190605     -0.2839148647418259
-0.13197623724675522      0.0495143221903817       -0.2839148647418255
-0.13197623724675522      0.024757161095190605     -0.2839148647418255
-0.045242506904852986     -2.7755575615628914E-16  -0.283914864741826
-0.045242506904852986     -0.02475716109519116     -0.283914864741826
-0.045242506904852986     -0.0495143221903817      -0.2839148647418259
-0.07415375035215366      -2.7755575615628914E-16  -0.2839148647418259
-0.10306499379945433      -2.7755575615628914E-16  -0.2839148647418259
-0.13197623724675522      -2.638948087829718E-16   -0.2839148647418255
-0.07415375035215364      -0.02475716109519116     -0.2839148647418259
-0.07415375035215366      -0.04951432219038171     -0.2839148647418259
-0.10306499379945433      -0.02475716109519116     -0.2839148647418259
-0.13197623724675522      -0.02475716109519114     -0.2839148647418255
-0.10306499379945433      -0.049514322190381696    -0.2839148647418259
-0.13197623724675522      -0.0495143221903817      -0.2839148647418255
0.0418373309516895        0.0495143221903817       0
0.0697288849194825        0.0495143221903817       0
0.04183733095168951       0.024757161095190917     0
0.06972888491948251       0.024757161095190917     0
0.0697288849194825        4.2717565595928875E-17   0
0.04183733095168949       4.6490589156178425E-17   0
0.0697288849194825        -0.02475716109519083     0
0.04183733095168947       -0.024757161095190834    0
0.0697288849194825        -0.0495143221903817      0
0.0418373309516895        -0.0495143221903817      0
0.013945776983896499      0.0495143221903817       0
0.013945776983896496      0.02475716109519091      0
0.0139457769838965        3.920475055707584E-17    0
0.0139457769838965        -0.02475716109519084     0
0.013945776983896499      -0.0495143221903817      0
-0.013945776983896499     0.0495143221903817       0
-0.013945776983896496     0.024757161095190907     0
-0.013945776983896504     4.0592529337857284E-17   0
-0.0139457769838965       -0.024757161095190834    0
-0.013945776983896499     -0.0495143221903817      0
-0.0418373309516895       0.0495143221903817       0
-0.041837330951689504     0.024757161095190917     0
-0.041837330951689504     4.024558464266193E-17    0
-0.041837330951689504     -0.024757161095190834    0
-0.0418373309516895       -0.0495143221903817      0
-0.0697288849194825       0.0495143221903817       0
-0.0697288849194825       0.024757161095190914     0
-0.06972888491948251      4.2717565595928875E-17   0
-0.06972888491948251      -0.024757161095190834    0
-0.0697288849194825       -0.0495143221903817      0
0.025829944633756003      0.024757161095190605     -0.22719452677034502
0.025829944633756003      0.0495143221903817       -0.22719452677034502
-4.7108567966272497E-4    0.024757161095190605     -0.22719452677034502
-4.710856796627243E-4     0.0495143221903817       -0.22719452677034505
0.025829944633756003      -2.638948087829718E-16   -0.227194526770345
-4.710856796626972E-4     -1.6653345369377348E-16  -0.22719452677034502
0.025829944633756003      -0.0495143221903817      -0.22719452677034502
0.025829944633756007      -0.02475716109519114     -0.22719452677034502
-4.7108567966273494E-4    -0.04951432219038171     -0.22719452677034505
-4.7108567966272497E-4    -0.02475716109519105     -0.22719452677034502
-0.026772115993081255     0.024757161095190716     -0.22719452677034502
-0.02677211599308123      0.04951432219038171      -0.22719452677034502
-0.02677211599308124      -3.3306690738754696E-16  -0.22719452677034502
-0.02677211599308124      -0.02475716109519116     -0.22719452677034502
-0.026772115993081234     -0.0495143221903817      -0.22719452677034502
-0.05307314630649973      0.024757161095190605     -0.22719452677034502
-0.05307314630649973      0.0495143221903817       -0.22719452677034502
-0.05307314630649973      -2.7755575615628914E-16  -0.22719452677034502
-0.05307314630649973      -0.02475716109519116     -0.22719452677034502
-0.05307314630649973      -0.0495143221903817      -0.22719452677034502
-0.07937417661991822      0.024757161095190605     -0.22719452677034502
-0.07937417661991822      0.0495143221903817       -0.22719452677034502
-0.10567520693333673      0.024757161095190605     -0.22719452677034502
-0.10567520693333673      0.04951432219038171      -0.22719452677034505
-0.13197623724675522      0.0495143221903817       -0.22719452677034502
-0.13197623724675522      0.024757161095190605     -0.22719452677034502
-0.07937417661991825      -2.7755575615628914E-16  -0.22719452677034502
-0.07937417661991823      -0.02475716109519116     -0.22719452677034502
-0.07937417661991823      -0.04951432219038171     -0.22719452677034502
-0.10567520693333673      -2.7755575615628914E-16  -0.22719452677034502
-0.13197623724675522      -2.638948087829718E-16   -0.227194526770345
-0.10567520693333673      -0.02475716109519116     -0.22719452677034502
-0.10567520693333673      -0.0495143221903817      -0.22719452677034505
-0.13197623724675522      -0.02475716109519114     -0.22719452677034502
-0.13197623724675522      -0.0495143221903817      -0.22719452677034502
-0.1036092213259782       0.0495143221903817       0.01
-0.08511791190315895      0.04951432219038171      -0.008449529092185517
-0.10360922132597822      0.024757161095190675     0.010000000000000002
-0.08511791190315893      0.02475716109519066      -0.008449529092185548
-0.1036092213259782       -2.1532255145562118E-16  0.01
-0.0851179119031589       -2.220446049250313E-16   -0.008449529092185576
-0.10360922132597823      -0.024757161095191108    0.010000000000000002
-0.08511791190315893      -0.024757161095191133    -0.008449529092185548
-0.1036092213259782       -0.0495143221903817      0.01
-0.08511791190315895      -0.049514322190381696    -0.008449529092185517
-0.0666266024803398       0.04951432219038171      -0.02689905818437112
-0.06662660248033982      0.02475716109519066      -0.026899058184371077
-0.06662660248033972      -2.220446049250313E-16   -0.026899058184371175
-0.06662660248033972      -0.02475716109519116     -0.026899058184371175
-0.06662660248033979      -0.0495143221903817      -0.026899058184371098
-0.04813529305752064      0.04951432219038171      -0.0453485872765567
-0.04813529305752065      0.024757161095190605     -0.045348587276556676
-0.048135293057520595     -2.220446049250313E-16   -0.04534858727655672
-0.048135293057520595     -0.02475716109519105     -0.04534858727655672
-0.04813529305752063      -0.04951432219038171     -0.0453485872765567
-0.029643983634701464     0.049514322190381696     -0.06379811636874226
-0.02964398363470146      0.024757161095190605     -0.06379811636874227
-0.029643983634701433     -1.6653345369377348E-16  -0.0637981163687423
-0.029643983634701446     -0.024757161095191077    -0.06379811636874229
-0.029643983634701464     -0.049514322190381696    -0.06379811636874225
-0.011152674211882303     0.049514322190381696     -0.08224764546092783
-0.011152674211882322     0.024757161095190605     -0.08224764546092783
-0.011152674211882308     -0.024757161095191105    -0.08224764546092786
-0.011152674211882315     -0.0495143221903817      -0.08224764546092783
-0.011152674211882308     -2.220446049250313E-16   -0.08224764546092785
0.00733863521093685       0.049514322190381696     -0.10069717455311343
0.00733863521093685       0.02475716109519066      -0.10069717455311343
0.0073386352109368475     -0.024757161095191133    -0.10069717455311343
0.007338635210936853      -0.049514322190381696    -0.10069717455311342
0.007338635210936859      -2.220446049250313E-16   -0.10069717455311343
0.025829944633756003      0.0495143221903817       -0.119146703645299
0.025829944633756007      0.024757161095190675     -0.119146703645299
0.025829944633756003      -0.0495143221903817      -0.119146703645299
0.025829944633756007      -0.024757161095191108    -0.11914670364529903
0.025829944633756007      -2.1532255145562118E-16  -0.119146703645299
0.025829944633756013      -0.0495143221903817      -0.14615865942656067
0.02582994463375601       -0.02475716109519105     -0.14615865942656073
0.02582994463375601       0.024757161095190716     -0.14615865942656073
0.02582994463375601       0.04951432219038171      -0.1461586594265607
0.02582994463375601       -2.7755575615628914E-16  -0.14615865942656067
0.025829944633756007      -0.049514322190381696    -0.17317061520782212
0.02582994463375601       -0.024757161095191216    -0.17317061520782212
0.02582994463375601       0.0495143221903817       -0.17317061520782212
0.02582994463375601       0.02475716109519055      -0.17317061520782212
0.02582994463375601       -2.7755575615628914E-16  -0.17317061520782212
0.02582994463375601       -0.04951432219038171     -0.2001825709890836
0.02582994463375601       0.0495143221903817       -0.2001825709890836
0.02582994463375601       0.024757161095190605     -0.2001825709890836
0.02582994463375601       -0.02475716109519116     -0.2001825709890836
0.02582994463375601       -1.6653345369377348E-16  -0.20018257098908357
0.06972888491948251       0.024757161095190917     0.010000000000000002
0.0697288849194825        0.0495143221903817       0.01
0.04083920054523906       0.024757161095190876     0.01
0.040839200545239054      0.04951432219038171      0.010000000000000002
0.0697288849194825        4.2717565595928875E-17   0.009999999999999998
0.040839200545239054      -2.8912057932946682E-18  0.01
0.0697288849194825        -0.02475716109519083     0.010000000000000002
0.04083920054523906       -0.024757161095190872    0.01
0.0697288849194825        -0.0495143221903817      0.01
0.04083920054523905       -0.04951432219038171     0.01
0.011949516170995616      0.04951432219038171      0.01
0.011949516170995609      0.024757161095190834     0.01
0.011949516170995609      -4.394632805807909E-17   0.01
0.011949516170995607      -0.02475716109519092     0.01
0.011949516170995617      -0.04951432219038172     0.010000000000000004
-0.01694016820324783      0.04951432219038171      0.010000000000000004
-0.016940168203247827     0.02475716109519079      0.01
-0.01694016820324783      -8.847089727481714E-17   0.01
-0.01694016820324783      -0.024757161095190963    0.01
-0.01694016820324783      -0.04951432219038171     0.010000000000000004
-0.1036092213259782       0.0495143221903817       0.01
-0.10360922132597822      0.024757161095190675     0.010000000000000002
-0.07471953695173471      0.04951432219038171      0.01
-0.07471953695173471      0.024757161095190713     0.01
-0.045829852577491274     0.04951432219038172      0.010000000000000004
-0.1036092213259782       -2.1532255145562118E-16  0.01
-0.045829852577491274     0.024757161095190747     0.01
-0.04582985257749127      -1.2952601953960153E-16  0.01
-0.07471953695173474      -1.723158652803628E-16   0.01
-0.10360922132597823      -0.024757161095191108    0.010000000000000002
-0.07471953695173474      -0.024757161095191056    0.01
-0.1036092213259782       -0.0495143221903817      0.01
-0.04582985257749126      -0.024757161095191008    0.01
-0.07471953695173472      -0.04951432219038171     0.010000000000000002
-0.04582985257749127      -0.04951432219038171     0.01
-0.0697288849194825       0.0495143221903817       0
-0.0697288849194825       0.024757161095190914     0
-0.051192200193393905     0.049514322190381696     -0.019857783940883156
-0.05119220019339392      0.02475716109519077      -0.019857783940883156
-0.06972888491948251      4.2717565595928875E-17   0
-0.06972888491948251      -0.024757161095190834    0
-0.05119220019339392      -5.551115123125783E-17   -0.01985778394088316
-0.0697288849194825       -0.0495143221903817      0
-0.05119220019339391      -0.024757161095190886    -0.019857783940883163
-0.05119220019339391      -0.04951432219038171     -0.019857783940883163
-0.03265551546730533      0.0495143221903817       -0.03971556788176633
-0.03265551546730532      0.024757161095190824     -0.03971556788176633
-0.032655515467305336     -5.551115123125783E-17   -0.03971556788176632
-0.032655515467305316     -0.024757161095190886    -0.03971556788176634
-0.03265551546730533      -0.04951432219038171     -0.03971556788176634
-0.014118830741216745     0.0495143221903817       -0.05957335182264949
-0.01411883074121676      0.024757161095190716     -0.05957335182264947
-0.014118830741216747     -1.1102230246251565E-16  -0.05957335182264949
-0.01411883074121674      -0.024757161095190994    -0.059573351822649494
-0.014118830741216743     -0.0495143221903817      -0.05957335182264949
0.004417853984871841      0.04951432219038171      -0.07943113576353268
0.00441785398487185       0.02475716109519077      -0.07943113576353267
0.00441785398487185       -1.3877787807814457E-16  -0.07943113576353265
0.004417853984871864      -0.024757161095190994    -0.07943113576353268
0.004417853984871842      -0.0495143221903817      -0.07943113576353267
0.02295453871096043       0.04951432219038171      -0.09928891970441583
0.022954538710960426      0.024757161095190716     -0.09928891970441582
0.022954538710960426      -2.220446049250313E-16   -0.09928891970441582
0.022954538710960426      -0.02475716109519102     -0.09928891970441582
0.022954538710960433      -0.04951432219038171     -0.09928891970441583
0.04149122343704905       0.0495143221903817       -0.119146703645299
0.04149122343704906       0.024757161095190675     -0.119146703645299
0.04149122343704905       -2.1532255145562118E-16  -0.119146703645299
0.04149122343704905       -0.0495143221903817      -0.119146703645299
0.04149122343704906       -0.024757161095191108    -0.11914670364529903
0.041491223437049043      -0.049514322190381696    -0.1466080638280534
0.041491223437049043      0.0495143221903817       -0.14660806382805341
0.041491223437049043      0.02475716109519066      -0.14660806382805344
0.041491223437049043      -1.6653345369377348E-16  -0.14660806382805344
0.041491223437049043      -0.024757161095191105    -0.14660806382805347
0.04149122343704904       -0.04951432219038172     -0.17406942401080785
0.041491223437049043      0.02475716109519066      -0.17406942401080788
0.04149122343704904       0.02475716109519055      -0.2015307841935623
0.04149122343704904       0.0495143221903817       -0.17406942401080783
0.041491223437049043      -2.220446049250313E-16   -0.17406942401080794
0.041491223437049043      -0.024757161095191105    -0.174069424010808
0.04149122343704904       0.049514322190381696     -0.20153078419356224
0.04149122343704903       0.0495143221903817       -0.22899214437631663
0.04149122343704903       0.02475716109519066      -0.2289921443763167
0.04149122343704904       -0.0495143221903817      -0.2015307841935622
0.04149122343704903       -2.220446049250313E-16   -0.22899214437631682
0.04149122343704903       -1.6653345369377348E-16  -0.25645350455907123
0.04149122343704904       -2.7755575615628914E-16  -0.20153078419356235
0.04149122343704903       -0.02475716109519116     -0.2289921443763169
0.04149122343704904       -0.02475716109519116     -0.2015307841935624
0.04149122343704904       -0.04951432219038171     -0.22899214437631665
0.04149122343704903       -0.0495143221903817      -0.256453504559071
0.041491223437049         0.0495143221903817       -0.283914864741826
0.04149122343704903       0.0495143221903817       -0.25645350455907107
0.041491223437049         0.024757161095190605     -0.283914864741826
0.04149122343704903       -0.02475716109519116     -0.25645350455907134
0.041491223437049         -2.638948087829718E-16   -0.283914864741826
0.04149122343704901       -0.02475716109519114     -0.283914864741826
0.041491223437049         -0.0495143221903817      -0.2839148647418255
0.04149122343704903       0.024757161095190605     -0.25645350455907123
% Elements (triangles)
1          2         3
3          4         5
4          3         2
6          5         4
2          7         4
4          8         6
8          4         7
9          6         8
7          10        8
11         9         12
8          12        9
12         8         10
10         13        12
14         11        15
12         15        11
15         12        13
16         17        18
18         19        16
19         20        21
18         17        20
19         18        20
22         21        20
21         22        23
24         25        23
26         23        22
23         26        24
25         24        27
24         26        27
28         29        30
31         30        29
30         31        32
32         31        33
33         34        32
34         33        35
36         35        37
35         36        34
38         39        40
41         37        39
41         39        38
37         41        36
38         42        41
42         43        41
43         42        44
44         45        43
45         44        46
46         47        45
47         46        48
48         49        47
49         48        50
50         51        49
51         50        52
52         53        51
52         54        53
55         53        54
54         56        55
57         55        56
56         58        57
59         57        58
60         61        62
63         64        62
58         64        59
63         59        64
65         62        64
60         62        65
60         66        61
60         65        66
64         67        65
65         68        66
68         65        67
69         66        68
67         70        68
71         68        70
68         71        69
72         69        71
70         73        71
71         74        72
74         71        73
75         72        74
73         76        74
74         77        75
77         74        76
78         75        77
76         79        77
80         77        79
80         78        77
78         80        81
79         82        80
83         81        80
83         80        82
84         85        86
87         86        85
85         88        87
88         89        87
89         88        90
90         91        89
92         93        91
91         90        92
94         95        96
97         96        93
97         94        96
93         92        97
94         97        98
98         97        99
99         100       98
100        99        101
101        102       100
102        101       103
103        104       102
104        103       105
105        106       104
106        105       107
107        108       106
108        107       109
108        109       110
111        110       109
110        111       112
113        112       111
112        113       114
115        114       113
116        117       118
116        119       117
120        117       121
114        115       121
120        121       115
119        121       117