% Model:              Box_wing_surf_ray_002.mph
% Version:            COMSOL 6.0.0.405
% Date:               Sep 16 2022, 09:44
% Dimension:          3
% Nodes:              655
% Elements:           908
% Expressions:        1
% Description:        Material settings
% Length unit:        m
% Coordinates
-1.265                    -0.6                     0.32999999999999996
-1.265                    -0.6                     0.55
-1.265                    -0.35999999999999993     0.32999999999999996
-1.265                    -0.35999999999999993     0.55
-1.265                    -0.6                     0.10999999999999993
-1.265                    -0.35999999999999993     0.11000000000000007
-1.265                    -0.11999999999999991     0.32999999999999996
-1.265                    -0.11999999999999991     0.55
-1.265                    0.12000000000000002      0.33
-1.265                    0.12000000000000002      0.55
-1.265                    -0.6                     -0.11000000000000008
-1.265                    -0.36                    -0.11000000000000007
-1.265                    -0.11999999999999991     0.10999999999999995
-1.265                    -0.6                     -0.3300000000000002
-1.265                    -0.36                    -0.33000000000000007
-1.265                    0.11999999999999991      0.10999999999999995
-1.265                    0.36000000000000004      0.33
-1.265                    0.36                     0.55
-1.265                    -0.12000000000000002     -0.10999999999999995
-1.265                    -0.6                     -0.5500000000000002
-1.265                    -0.36                    -0.5500000000000002
-1.265                    -0.12000000000000002     -0.33000000000000035
-1.265                    0.11999999999999968      -0.10999999999999995
-1.265                    0.35999999999999993      0.11000000000000001
-1.265                    0.6                      0.33000000000000007
-1.265                    0.6                      0.55
-1.265                    -0.12000000000000002     -0.5500000000000002
-1.265                    0.11999999999999991      -0.33000000000000007
-1.265                    0.35999999999999993      -0.11000000000000007
-1.265                    0.6                      0.10999999999999997
-1.265                    0.11999999999999991      -0.5500000000000002
-1.265                    0.35999999999999993      -0.32999999999999996
-1.265                    0.6                      -0.11000000000000006
-1.265                    0.35999999999999993      -0.5500000000000002
-1.265                    0.6                      -0.33000000000000007
-1.265                    0.6                      -0.5500000000000002
0.5901780000000004        -0.36000000000000004     -0.55
0.8650000000000003        -0.36                    -0.5499999999999998
0.5654500000000003        -0.6                     -0.55
0.8650000000000003        -0.6                     -0.55
0.6149060000000002        -0.12000000000000013     -0.55
0.8650000000000002        -0.12000000000000001     -0.5499999999999998
0.639634                  0.12000000000000002      -0.55
0.8650000000000002        0.12                     -0.5499999999999998
0.6643620000000005        0.36                     -0.55
0.8650000000000003        0.36                     -0.5499999999999998
0.6890900000000003        0.6                      -0.55
0.8650000000000003        0.6                      -0.55
0.4042093333333337        -0.3599999999999997      -0.55
0.37696666666666695       -0.6                     -0.55
0.43145200000000017       -0.12000000000000013     -0.55
0.4586946666666669        0.12000000000000002      -0.55
0.48593733333333367       0.36                     -0.55
0.5131800000000002        0.6                      -0.55
0.20210466666666685       -0.3599999999999995      -0.5500000000000002
0.21572599999999995       -0.11999999999999991     -0.5500000000000002
0.18848333333333353       -0.5999999999999998      -0.5499999999999999
2.3765711620882257E-16    -0.5999999999999999      -0.55
2.382094521635736E-16     -0.35999999999999993     -0.5500000000000002
0.22934733333333332       0.12000000000000013      -0.5500000000000002
0.24296866666666647       0.36000000000000004      -0.5500000000000002
0.25659000000000015       0.6                      -0.55
0                         -0.12000000000000002     -0.5500000000000002
-0.1884833333333331       -0.6                     -0.55
-0.20210466666666685      -0.35999999999999993     -0.5500000000000002
2.382094521635736E-16     0.12000000000000002      -0.5500000000000002
2.382094521635736E-16     0.3599999999999999       -0.5500000000000002
1.1622647289044608E-16    0.5999999999999999       -0.55
-0.2157259999999998       -0.12000000000000013     -0.5500000000000002
-0.37696666666666645      -0.6                     -0.5500000000000002
-0.4042093333333332       -0.35999999999999993     -0.5500000000000002
-0.22934733333333332      0.12000000000000002      -0.5500000000000002
-0.24296866666666633      0.36                     -0.5500000000000002
-0.25658999999999993      0.6000000000000001       -0.5500000000000002
-0.43145200000000017      -0.12000000000000013     -0.5500000000000002
-0.5901780000000001       -0.36000000000000004     -0.5500000000000002
-0.5654499999999998       -0.6                     -0.5500000000000002
-0.45869466666666664      0.12000000000000002      -0.5500000000000002
-0.48593733333333294      0.36                     -0.5500000000000002
-0.5131799999999999       0.6                      -0.5500000000000002
-0.614906                 -0.12000000000000013     -0.5500000000000002
-0.8649999999999998       -0.36                    -0.5500000000000002
-0.8649999999999998       -0.6                     -0.5500000000000002
-0.639634                 0.11999999999999991      -0.5500000000000002
-0.6643619999999998       0.36                     -0.5500000000000002
-0.6890899999999999       0.6000000000000001       -0.5500000000000002
-0.8649999999999999       0.6                      -0.5500000000000002
-0.8649999999999998       0.36                     -0.5500000000000002
-0.8649999999999998       -0.12                    -0.5500000000000002
-0.8649999999999998       0.12000000000000001      -0.5500000000000002
0.4019933333333334        -0.6                     -0.33000000000000007
0.5654500000000003        -0.5999999999999999      -0.33000000000000007
0.23853666666666695       -0.6                     -0.32999999999999974
0.4270200000000005        -0.6                     -0.11000000000000007
0.5654500000000003        -0.5999999999999999      -0.11000000000000017
0.5021000000000003        -0.6000000000000001      0.5500000000000003
0.4770733333333335        -0.6                     0.32999999999999996
0.5654500000000003        -0.6                     0.5500000000000002
0.5654500000000002        -0.5999999999999999      0.32999999999999996
0.4520466666666668        -0.6                     0.11000000000000001
0.5654500000000003        -0.6                     0.10999999999999995
0.43875000000000025       -0.6                     0.5500000000000002
0.38869666666666675       -0.6                     0.32999999999999996
0.28858999999999974       -0.6                     -0.11000000000000007
2.9209391132605715E-16    -0.6                     -0.32999999999999985
0.33864333333333346       -0.6                     0.11000000000000014
2.5168056695419446E-16    -0.6                     0.33000000000000007
2.3592239273284576E-16    -0.5999999999999999      0.5500000000000002
-0.2385366666666662       -0.6                     -0.32999999999999974
2.7862279653543627E-16    -0.6                     -0.10999999999999995
-0.2885899999999996       -0.6                     -0.10999999999999983
2.6515168174481534E-16    -0.6                     0.11000000000000014
-0.3386433333333333       -0.6                     0.11000000000000014
-0.38869666666666647      -0.6                     0.33
-0.43874999999999975      -0.6                     0.55
-0.5020999999999999       -0.6000000000000001      0.5500000000000002
-0.47707333333333324      -0.6                     0.33000000000000007
-0.4520466666666665       -0.6                     0.11000000000000014
-0.5654499999999998       -0.6                     0.55
-0.5654499999999998       -0.5999999999999999      0.33000000000000007
-0.40199333333333304      -0.6                     -0.33000000000000007
-0.4270199999999997       -0.6                     -0.10999999999999983
-0.5654499999999998       -0.6                     -0.10999999999999995
-0.5654499999999998       -0.5999999999999999      -0.32999999999999996
-0.5654499999999998       -0.5999999999999999      0.11000000000000017
0.43875000000000003       0.6                      0.5500000000000002
0.5131800000000002        0.6                      0.5500000000000002
0.4023179999999999        0.6                      0.33000000000000007
0.5131799999999999        0.5999999999999999       0.33000000000000007
0.365886                  0.6                      0.11000000000000021
0.51318                   0.5999999999999999       0.11000000000000017
0.329454                  0.6                      -0.10999999999999983
0.5131800000000001        0.6                      -0.10999999999999995
0.2930220000000001        0.6                      -0.32999999999999985
0.51318                   0.5999999999999999       -0.32999999999999996
1.8432499300109E-16       0.6                      0.32999999999999996
3.469446951953614E-17     0.6                      0.5500000000000002
-2.7862279653543627E-16   0.6                      0.10999999999999995
2.1126722258233182E-16    0.6                      -0.11000000000000021
-0.402318                 0.6                      0.32999999999999996
-0.43875000000000003      0.6                      0.55
-1.3471114790620896E-17   0.6                      -0.32999999999999996
-0.5131799999999999       0.6                      0.55
-0.5131799999999997       0.5999999999999999       0.32999999999999996
-0.3658860000000002       0.6                      0.10999999999999995
-0.3294539999999999       0.6                      -0.11000000000000021
-0.5131799999999997       0.6                      0.10999999999999995
-0.2930220000000001       0.6                      -0.33000000000000007
-0.5131799999999996       0.5999999999999999       -0.11000000000000017
-0.5131799999999997       0.5999999999999999       -0.33000000000000007
2.382094521635736E-16     -0.3599999999999999      0.5500000000000002
0.43875000000000014       -0.36                    0.55
0                         -0.11999999999999991     0.5500000000000002
0.43875000000000014       -0.12                    0.55
2.382094521635736E-16     0.35999999999999993      0.5500000000000002
0.43875000000000014       0.36                     0.5500000000000002
2.382094521635736E-16     0.12000000000000013      0.5500000000000002
0.43875000000000014       0.12000000000000001      0.55
-0.4387499999999998       -0.36                    0.5500000000000002
-0.4387499999999998       -0.12000000000000001     0.55
-0.4387499999999998       0.36                     0.55
-0.4387499999999998       0.12                     0.55
1.2650000000000001        -0.2                     -0.55
1.2650000000000001        1.1275702593849246E-17   -0.55
1.2650000000000001        -0.20000000000000004     -0.3299999999999999
1.2650000000000001        0                        -0.32999999999999985
1.2650000000000001        0.2                      -0.55
1.2650000000000001        0.2                      -0.3299999999999998
1.2650000000000001        0                        0.33000000000000007
1.2650000000000001        0.2                      0.3300000000000002
1.2650000000000001        -1.1275702593849246E-17  0.5500000000000002
1.2650000000000001        0.2                      0.5500000000000002
1.2650000000000001        0                        0.11000000000000021
1.2650000000000001        0.2                      0.1100000000000002
1.2650000000000001        -0.19999999999999998     0.3300000000000001
1.2650000000000001        -0.2                     0.5500000000000002
1.2650000000000001        -0.2                     0.11000000000000021
1.2650000000000001        0                        -0.10999999999999983
1.2650000000000001        0.2                      -0.1099999999999998
1.2650000000000001        -0.2                     -0.1099999999999998
-0.7041899999999998       -0.6                     0.55
-0.7363519999999996       -0.6                     0.32999999999999996
-0.5654499999999998       -0.6                     0.55
-0.5654499999999998       -0.5999999999999999      0.33000000000000007
-0.8633439999999997       -0.6                     0.32999999999999996
-0.8429299999999997       -0.6                     0.55
-0.9903359999999998       -0.6                     0.32999999999999985
-0.9816699999999996       -0.6                     0.5499999999999999
-0.8006759999999996       -0.6                     -0.11000000000000021
-0.8328379999999999       -0.6                     -0.32999999999999985
-0.5654499999999998       -0.6                     -0.10999999999999995
-0.5654499999999998       -0.5999999999999999      -0.32999999999999996
-1.1173279999999997       -0.6                     0.32999999999999996
-1.1204099999999997       -0.6                     0.55
-1.2443199999999996       -0.6                     0.32999999999999996
-1.2591499999999998       -0.6                     0.55
-1.265                    -0.6                     0.55
-1.265                    -0.6                     0.32999999999999996
-1.2294899999999997       -0.6                     0.10999999999999988
-1.1142459999999998       -0.6                     0.11000000000000001
-1.265                    -0.6                     0.10999999999999993
-0.7685139999999997       -0.6                     0.11000000000000014
-0.5654499999999998       -0.5999999999999999      0.11000000000000017
-0.9990020000000001       -0.6                     0.10999999999999988
-0.8837579999999995       -0.6                     0.11000000000000014
-0.9041719999999996       -0.6                     -0.10999999999999995
-0.9245859999999999       -0.6                     -0.33000000000000007
-0.8649999999999998       -0.6                     -0.5500000000000002
-0.5654499999999998       -0.6                     -0.5500000000000002
-0.9449999999999997       -0.6                     -0.5500000000000002
-1.2146599999999999       -0.6                     -0.10999999999999995
-1.265                    -0.6                     -0.11000000000000008
-1.007668                 -0.6                     -0.10999999999999983
-1.1111639999999996       -0.6                     -0.10999999999999995
-1.19983                  -0.6                     -0.33000000000000007
-1.1080819999999996       -0.6                     -0.33000000000000007
-1.016334                 -0.6                     -0.33000000000000007
-1.0250000000000001       -0.6                     -0.5500000000000003
-1.1049999999999995       -0.5999999999999998      -0.5500000000000002
-1.265                    -0.6                     -0.3300000000000002
-1.1849999999999998       -0.6                     -0.5500000000000002
-1.265                    -0.6                     -0.5500000000000002
-0.9449999999999997       -0.35999999999999993     -0.5500000000000002
-0.8649999999999998       -0.36                    -0.5500000000000002
-1.025                    -0.35999999999999993     -0.5500000000000002
-1.1049999999999995       -0.3599999999999997      -0.5500000000000002
-1.1850000000000005       -0.3600000000000003      -0.5500000000000002
-0.9449999999999997       -0.12000000000000002     -0.5500000000000002
-0.9449999999999997       0.12000000000000002      -0.5500000000000002
-0.8649999999999998       -0.12                    -0.5500000000000002
-0.8649999999999998       0.12000000000000001      -0.5500000000000002
-1.0250000000000008       -0.12000000000000013     -0.5500000000000002
-1.0250000000000008       0.11999999999999991      -0.5500000000000002
-1.1049999999999995       -0.12000000000000002     -0.5500000000000002
-1.265                    -0.36                    -0.5500000000000002
-1.185                    -0.12000000000000002     -0.5500000000000002
-0.9449999999999997       0.36                     -0.5500000000000002
-0.8649999999999998       0.36                     -0.5500000000000002
-1.0250000000000008       0.35999999999999993      -0.5500000000000002
-0.9449999999999998       0.6                      -0.5500000000000002
-0.8649999999999999       0.6                      -0.5500000000000002
-1.105                    0.12000000000000006      -0.5500000000000002
-1.265                    -0.12000000000000002     -0.5500000000000002
-1.1850000000000005       0.11999999999999983      -0.5500000000000002
-1.105                    0.36000000000000004      -0.5500000000000002
-1.025                    0.6                      -0.5500000000000002
-1.265                    0.11999999999999991      -0.5500000000000002
-1.185                    0.35999999999999993      -0.5500000000000002
-1.105                    0.6                      -0.5500000000000002
-1.265                    0.35999999999999993      -0.5500000000000002
-1.185                    0.6                      -0.5500000000000002
-1.265                    0.6                      -0.5500000000000002
-0.6375083333333333       0.6                      0.5500000000000002
-0.5131799999999999       0.6                      0.55
-0.6478246666666662       0.6                      0.33000000000000024
-0.5131799999999997       0.5999999999999999       0.32999999999999996
-0.6581410000000003       0.6                      0.11000000000000007
-0.5131799999999997       0.6                      0.10999999999999995
-0.7618366666666666       0.6                      0.5500000000000002
-0.7824693333333329       0.6                      0.33000000000000024
-0.6684573333333329       0.6                      -0.11000000000000021
-0.5131799999999996       0.5999999999999999       -0.11000000000000017
-0.8031019999999999       0.6                      0.11000000000000007
-0.8979319999999996       0.6                      0.32999999999999996
-0.8861649999999999       0.6000000000000001       0.55
-1.0133946666666676       0.6                      0.32999999999999974
-1.0104933333333332       0.6                      0.55
-1.1288573333333336       0.6                      0.33000000000000007
-1.1348216666666666       0.6                      0.55
-1.2443199999999999       0.6                      0.33000000000000007
-1.25915                  0.6                      0.55
-0.8237346666666668       0.6                      -0.11000000000000007
-0.6787736666666663       0.6                      -0.33
-0.5131799999999997       0.5999999999999999       -0.33000000000000007
-0.6890899999999999       0.6000000000000001       -0.5500000000000002
-0.5131799999999999       0.6                      -0.5500000000000002
-0.8443673333333329       0.6                      -0.32999999999999996
-0.9096989999999999       0.6                      0.10999999999999983
-1.0162959999999999       0.6                      0.10999999999999995
-1.122893                 0.6                      0.10999999999999995
-1.265                    0.6                      0.55
-1.265                    0.6                      0.33000000000000007
-1.2294900000000004       0.6                      0.10999999999999971
-0.9214659999999997       0.6                      -0.11000000000000021
-0.9332329999999993       0.6                      -0.33
-1.0191973333333333       0.6                      -0.10999999999999995
-1.1169286666666671       0.6                      -0.11000000000000007
-1.265                    0.6                      0.10999999999999997
-1.2146599999999999       0.6                      -0.11000000000000001
-1.0220986666666665       0.6                      -0.33000000000000007
-1.110964333333334        0.6                      -0.33
-1.265                    0.6                      -0.11000000000000006
-1.1998300000000002       0.6                      -0.32999999999999996
-1.265                    0.6                      -0.33000000000000007
1.1998300000000008        0.6                      -0.3299999999999999
1.2650000000000001        0.6                      -0.32999999999999996
1.1850000000000007        0.6                      -0.55
1.2650000000000001        0.6                      -0.55
1.2294900000000006        0.6                      0.11000000000000021
1.2650000000000001        0.6                      0.11000000000000008
1.2146600000000007        0.6                      -0.10999999999999988
1.2650000000000001        0.6                      -0.10999999999999993
1.2591500000000002        0.6                      0.5500000000000002
1.2650000000000001        0.6                      0.5500000000000002
1.2443200000000005        0.6                      0.33000000000000007
1.2650000000000001        0.6                      0.3300000000000002
1.1050000000000004        0.6                      -0.55
1.1109643333333339        0.6                      -0.3299999999999999
1.0250000000000004        0.6                      -0.55
1.0220986666666672        0.6                      -0.32999999999999985
1.1288573333333336        0.6                      0.32999999999999996
1.1348216666666666        0.5999999999999999       0.5500000000000002
1.116928666666667         0.6                      -0.10999999999999988
1.1228930000000004        0.6                      0.11000000000000021
1.0191973333333337        0.6                      -0.10999999999999988
1.013394666666667         0.6                      0.33000000000000035
1.0104933333333337        0.6000000000000001       0.5500000000000003
0.8979320000000002        0.6                      0.33000000000000007
0.8861650000000002        0.5999999999999999       0.5500000000000002
0.9450000000000003        0.6                      -0.55
0.9332330000000003        0.6                      -0.32999999999999996
0.8650000000000003        0.6                      -0.55
0.8443673333333336        0.6                      -0.32999999999999996
1.0162960000000005        0.6                      0.11000000000000021
0.9096990000000003        0.6                      0.11000000000000021
0.9214660000000002        0.6                      -0.10999999999999988
0.823734666666667         0.6                      -0.10999999999999995
0.8031020000000004        0.6                      0.11000000000000021
0.6787736666666673        0.6                      -0.32999999999999985
0.6890900000000003        0.6                      -0.55
0.7824693333333337        0.6                      0.33000000000000007
0.7618366666666669        0.6                      0.5500000000000002
0.6375083333333336        0.6000000000000001       0.5500000000000002
0.6478246666666668        0.6                      0.33000000000000007
0.6684573333333337        0.6                      -0.10999999999999988
0.6581410000000003        0.6                      0.11000000000000021
0.5131800000000002        0.6                      0.5500000000000002
0.5131799999999999        0.5999999999999999       0.33000000000000007
0.51318                   0.5999999999999999       0.11000000000000017
0.5131800000000001        0.6                      -0.10999999999999995
0.51318                   0.5999999999999999       -0.32999999999999996
0.5131800000000002        0.6                      -0.55
1.2591500000000009        -0.6                     0.5500000000000002
1.2443200000000012        -0.6                     0.33000000000000007
1.2650000000000001        -0.6                     0.5500000000000002
1.2650000000000001        -0.6                     0.33000000000000007
1.1998300000000004        -0.6                     -0.33000000000000035
1.1850000000000007        -0.6                     -0.55
1.2650000000000001        -0.6                     -0.33000000000000007
1.2650000000000001        -0.6                     -0.55
1.2146600000000005        -0.6                     -0.10999999999999971
1.2650000000000001        -0.6                     -0.10999999999999997
1.229490000000001         -0.6                     0.11000000000000014
1.2650000000000001        -0.6                     0.11000000000000006
1.117328000000001         -0.6                     0.32999999999999996
1.1204100000000008        -0.6000000000000001      0.5500000000000004
1.1050000000000004        -0.6                     -0.55
1.1080820000000002        -0.6                     -0.33000000000000007
1.0250000000000004        -0.6                     -0.55
1.016334                  -0.6                     -0.33000000000000024
0.9450000000000003        -0.6                     -0.55
0.924586                  -0.6                     -0.33000000000000024
1.1111640000000003        -0.6                     -0.10999999999999995
1.0076680000000002        -0.6                     -0.10999999999999995
0.9903359999999999        -0.6                     0.32999999999999996
0.9816700000000007        -0.6                     0.5500000000000002
0.8633440000000004        -0.6                     0.32999999999999985
0.8429300000000005        -0.5999999999999999      0.55
0.8650000000000003        -0.6                     -0.55
0.8328380000000004        -0.6                     -0.33000000000000007
1.1142460000000014        -0.6                     0.11000000000000007
0.9990020000000004        -0.6                     0.10999999999999995
0.9041720000000002        -0.6                     -0.11000000000000007
0.7363520000000008        -0.6                     0.3299999999999999
0.7041900000000004        -0.5999999999999999      0.5500000000000002
0.8837580000000003        -0.6                     0.10999999999999983
0.8006760000000005        -0.6                     -0.11000000000000007
0.7685139999999997        -0.6                     0.10999999999999983
0.5654500000000003        -0.5999999999999999      -0.33000000000000007
0.5654500000000003        -0.6                     -0.55
0.5654500000000003        -0.5999999999999999      -0.11000000000000017
0.5654500000000003        -0.6                     0.5500000000000002
0.5654500000000002        -0.5999999999999999      0.32999999999999996
0.5654500000000003        -0.6                     0.10999999999999995
1.1850000000000007        -0.23199999999999985     -0.55
1.2650000000000001        -0.2                     -0.55
1.2650000000000001        1.1275702593849246E-17   -0.55
1.1850000000000007        -0.024000000000000004    -0.55
1.2650000000000001        0.2                      -0.55
1.1850000000000007        0.18400000000000008      -0.55
1.2650000000000003        0.4                      -0.55
1.1850000000000007        0.3920000000000001       -0.55
1.1050000000000004        -0.26399999999999996     -0.55
1.0250000000000004        -0.29599999999999976     -0.55
0.9450000000000003        -0.3280000000000001      -0.55
1.1050000000000004        -0.04799999999999989     -0.55
1.0250000000000004        -0.07200000000000013     -0.55
1.1050000000000006        0.16800000000000004      -0.55
1.1050000000000004        0.38400000000000006      -0.55
1.0250000000000004        0.1520000000000001       -0.55
1.0250000000000004        0.3760000000000001       -0.55
0.9450000000000003        0.36800000000000005      -0.55
0.9450000000000003        -0.09600000000000002     -0.55
0.9450000000000003        0.13599999999999995      -0.55
0.8650000000000002        -0.12000000000000001     -0.5499999999999998
0.8650000000000002        0.12                     -0.5499999999999998
0.8650000000000003        -0.36                    -0.5499999999999998
0.8650000000000003        0.36                     -0.5499999999999998
1.2650000000000001        -0.20000000000000004     -0.3299999999999999
1.2650000000000001        -0.19999999999999998     0.3300000000000001
1.2650000000000001        -0.2                     0.5500000000000002
1.2650000000000001        -0.2                     -0.1099999999999998
1.2650000000000001        -0.2                     0.11000000000000021
1.2650000000000001        0.4                      0.33000000000000024
1.265                     0.39999999999999997      0.5500000000000002
1.2650000000000001        0.4                      -0.32999999999999985
1.2650000000000001        0.4                      0.11000000000000029
1.2650000000000001        0.2                      -0.3299999999999998
1.2650000000000001        0.2                      0.3300000000000002
1.2650000000000001        0.2                      0.5500000000000002
1.2650000000000001        0.3999999999999999       -0.10999999999999988
1.2650000000000001        0.2                      -0.1099999999999998
1.2650000000000001        0.2                      0.1100000000000002
-1.2591499999999998       -0.6                     0.55
-1.25915                  -0.36                    0.5499999999999998
-1.265                    -0.6                     0.55
-1.2591499999999998       -0.12000000000000001     0.5499999999999998
-1.265                    -0.35999999999999993     0.55
-1.265                    -0.11999999999999991     0.55
-1.2591499999999998       0.12                     0.5499999999999998
-1.265                    0.12000000000000002      0.55
-1.2591499999999998       0.36                     0.5499999999999998
-1.265                    0.36                     0.55
-1.25915                  0.6                      0.55
-1.265                    0.6                      0.55
1.2591500000000002        0.6                      0.5500000000000002
1.2591500000000002        0.36                     0.5500000000000002