% Model:              FEM_001_surf_surf.mph
% Version:            COMSOL 6.0.0.405
% Date:               Sep 14 2022, 16:02
% Dimension:          3
% Nodes:              10602
% Elements:           18026
% Expressions:        1
% Description:        Material settings
% Length unit:        m
% Coordinates
-1.364285714285712        -0.5044187638095083      -0.4072783117304045
-1.3642857142857119       -0.5515592158886115      -0.36013785965130124
-1.3642857142857117       -0.4366556710916144      -0.33951521901251064
-1.3642857142857119       -0.4837961231707175      -0.29237476693340747
-1.3642857142857119       -0.45727831173040506     -0.45441876380950774
-1.3642857142857119       -0.3895152190125112      -0.3866556710916139
-1.3642857142857119       -0.4101378596513019      -0.501559215888611
-1.3642857142857119       -0.34237476693340796     -0.4337961231707171
-1.3499999999999974       -0.5651118344321902      -0.37369047819488005
-1.3499999999999974       -0.5707106781186555      -0.37928932188134545
-1.2499999999999976       -0.5494974746830591      -0.358076118445749
-1.2499999999999976       -0.5707106781186555      -0.37928932188134545
-1.2499999999999976       -0.5282842712474627      -0.3368629150101526
-1.2499999999999978       -0.5070710678118663      -0.3156497115745562
-1.3499999999999976       -0.47024350462713876     -0.2788221483898287
-1.2499999999999978       -0.48585786437626993     -0.29443650813895983
-1.3499999999999976       -0.46464466094067336     -0.27322330470336337
-1.2499999999999976       -0.46464466094067336     -0.27322330470336337
-1.3499999999999976       -0.5179713823530872      -0.4208309302739833
-1.3499999999999974       -0.47083093027398387     -0.46797138235308644
-1.3499999999999976       -0.4236904781948807      -0.5151118344321897
-1.3642857142857123       -0.3895152190125117      0.3866556710916136
-1.364285714285712        -0.4572783117304055      0.4544187638095075
-1.3642857142857119       -0.34237476693340835     0.43379612317071664
-1.3642857142857119       -0.4101378596513022      0.5015592158886105
-1.3642857142857119       -0.48379612317071796     0.2923747669334072
-1.3642857142857119       -0.5515592158886118      0.36013785965130113
-1.3642857142857119       -0.43665567109161474     0.3395152190125103
-1.364285714285712        -0.5044187638095087      0.40727831173040435
-1.3499999999999976       -0.5651118344321905      0.3736904781948799
-1.2499999999999978       -0.5494974746830595      0.35807611844574877
-1.3499999999999976       -0.5707106781186558      0.37928932188134523
-1.2499999999999976       -0.5707106781186558      0.37928932188134523
-1.2499999999999976       -0.5282842712474631      0.3368629150101523
-1.2499999999999978       -0.5070710678118666      0.3156497115745559
-1.3499999999999976       -0.47024350462713915     0.27882214838982844
-1.2499999999999978       -0.4858578643762701      0.2944365081389594
-1.3499999999999976       -0.46464466094067375     0.27322330470336303
-1.2499999999999976       -0.4646446609406737      0.27322330470336303
-1.3499999999999976       -0.5179713823530874      0.42083093027398305
-1.3499999999999976       -0.47083093027398415     0.4679713823530863
-1.3499999999999976       -0.4236904781948809      0.5151118344321893
-1.3499999999999976       -0.42310305254803565     -0.32596260046893194
-1.3499999999999979       -0.3759626004689325      -0.37310305254803516
-1.3499999999999976       -0.3288221483898292      -0.42024350462713833
-1.3499999999999976       -0.3759626004689327      0.3731030525480348
-1.3499999999999976       -0.32882214838982954     0.4202435046271379
-1.3499999999999976       -0.42310305254803593     0.32596260046893155
-1.2499999999999976       -0.4080761184457495      -0.4994974746830586
-1.3499999999999976       -0.42928932188134594     -0.520710678118655
-1.2499999999999976       -0.42928932188134594     -0.520710678118655
-1.2499999999999976       -0.3868629150101531      -0.4782842712474622
-1.2499999999999976       -0.36564971157455656     -0.45707106781186574
-1.2499999999999978       -0.34443650813896026     -0.43585786437626944
-1.3499999999999976       -0.3232233047033638      -0.41464466094067287
-1.2499999999999976       -0.3232233047033638      -0.41464466094067287
-1.3499999999999976       -0.4292893218813463      0.5207106781186547
-1.2499999999999978       -0.40807611844574987     0.4994974746830583
-1.2499999999999976       -0.4292893218813463      0.5207106781186547
-1.2499999999999976       -0.3868629150101534      0.4782842712474618
-1.2499999999999976       -0.36564971157455706     0.45707106781186535
-1.2499999999999978       -0.3444365081389606      0.435857864376269
-1.3499999999999976       -0.3232233047033642      0.41464466094067254
-1.2499999999999976       -0.3232233047033642      0.41464466094067254
-1.364285714285712        0.4101378596512975       -0.5015592158886099
-1.364285714285712        0.34237476693340435      -0.43379612317071503
-1.364285714285712        0.4572783117304012       -0.4544187638095072
-1.3642857142857123       0.3895152190125082       -0.38665567109161253
-1.364285714285712        0.504418763809505        -0.40727831173040463
-1.364285714285712        0.43665567109161196      -0.3395152190125098
-1.364285714285712        0.5515592158886088       -0.3601378596513019
-1.364285714285712        0.4837961231707157       -0.2923747669334072
-1.3499999999999979       0.42369047819487615      -0.5151118344321887
-1.3499999999999979       0.42928932188134145      -0.5207106781186541
-1.2499999999999978       0.40807611844574526      -0.49949747468305744
-1.2499999999999978       0.42928932188134145      -0.5207106781186541
-1.249999999999998        0.386862915010149        -0.4782842712474608
-1.2499999999999978       0.36564971157455284      -0.457071067811864
-1.3499999999999976       0.32882214838982576      -0.4202435046271361
-1.2499999999999978       0.34443650813895665      -0.43585786437626745
-1.3499999999999976       0.32322330470336047      -0.4146446609406707
-1.2499999999999978       0.3232233047033605       -0.4146446609406707
-1.3499999999999979       0.37596260046892954      -0.3731030525480336
-1.3499999999999979       0.42310305254803326      -0.32596260046893094
-1.3499999999999979       0.47024350462713704      -0.27882214838982833
-1.3642857142857119       0.483796123170716        0.29237476693340747
-1.364285714285712        0.4366556710916129       0.3395152190125107
-1.3642857142857119       0.5515592158886099       0.3601378596513013
-1.3642857142857117       0.5044187638095068       0.4072783117304044
-1.3642857142857119       0.38951521901250974      0.38665567109161386
-1.3642857142857117       0.45727831173040356      0.45441876380950774
-1.3642857142857119       0.34237476693340646      0.4337961231707171
-1.3642857142857119       0.4101378596513004       0.501559215888611
-1.3499999999999976       0.32882214838982776      0.42024350462713833
-1.3499999999999976       0.3232233047033623       0.41464466094067287
-1.2499999999999976       0.34443650813895876      0.43585786437626933
-1.2499999999999976       0.32322330470336236      0.41464466094067287
-1.2499999999999976       0.3656497115745553       0.45707106781186574
-1.2499999999999976       0.38686291501015163      0.47828427124746214
-1.3499999999999976       0.42369047819487915      0.5151118344321897
-1.2499999999999976       0.40807611844574804      0.49949747468305855
-1.3499999999999976       0.4292893218813445       0.520710678118655
-1.2499999999999976       0.4292893218813445       0.520710678118655
-1.3499999999999976       0.47024350462713727      0.2788221483898287
-1.3499999999999979       0.42310305254803415      0.32596260046893194
-1.3499999999999979       0.37596260046893093      0.3731030525480351
-1.349999999999998        0.47083093027398         -0.46797138235308616
-1.3499999999999979       0.5179713823530837       -0.42083093027398344
-1.3499999999999979       0.5651118344321874       -0.3736904781948808
-1.3499999999999976       0.5651118344321887       0.37369047819488005
-1.3499999999999974       0.5179713823530855       0.4208309302739832
-1.3499999999999976       0.4708309302739824       0.46797138235308644
-1.249999999999998        0.5494974746830565       -0.35807611844574955
-1.3499999999999979       0.5707106781186526       -0.37928932188134623
-1.2499999999999978       0.5707106781186526       -0.37928932188134623
-1.249999999999998        0.5282842712474604       -0.33686291501015286
-1.249999999999998        0.5070710678118642       -0.3156497115745562
-1.249999999999998        0.485857864376268        -0.2944365081389595
-1.3499999999999979       0.4646446609406717       -0.2732233047033628
-1.2499999999999978       0.4646446609406717       -0.2732233047033628
-1.2499999999999978       0.4858578643762684       0.2944365081389598
-1.3499999999999976       0.4646446609406719       0.27322330470336337
-1.2499999999999976       0.4646446609406719       0.27322330470336337
-1.2499999999999976       0.5070710678118648       0.3156497115745561
-1.2499999999999978       0.5282842712474612       0.33686291501015264
-1.2499999999999976       0.5494974746830577       0.35807611844574905
-1.3499999999999976       0.5707106781186541       0.3792893218813455
-1.2499999999999976       0.5707106781186541       0.3792893218813455
-1.3499999999999979       -0.5235702260395524      -0.42642977396044873
-1.3499999999999974       -0.47642977396044905     -0.47357022603955184
-1.2499999999999978       -0.5235702260395524      -0.42642977396044873
-1.2499999999999976       -0.47642977396044905     -0.47357022603955184
-1.3499999999999976       -0.4764297739604494      0.4735702260395515
-1.3499999999999976       -0.5235702260395526      0.4264297739604484
-1.2499999999999973       -0.4764297739604494      0.4735702260395515
-1.2499999999999976       -0.5235702260395526      0.4264297739604484
-1.3499999999999976       -0.370363756782467       -0.3675042088615697
-1.3499999999999976       -0.4175042088615702      -0.32036375678246654
-1.3499999999999976       -0.4175042088615705      0.32036375678246626
-1.3499999999999976       -0.37036375678246736     0.3675042088615694
-1.2499999999999973       -0.370363756782467       -0.3675042088615697
-1.2499999999999976       -0.4175042088615702      -0.32036375678246654
-1.249999999999998        -0.4175042088615705      0.3203637567824663
-1.2499999999999976       -0.37036375678246736     0.3675042088615695
-1.3499999999999974       0.37036375678246414      -0.3675042088615681
-1.3499999999999976       0.41750420886156797      -0.3203637567824655
-1.2499999999999978       0.37036375678246425      -0.3675042088615681
-1.2499999999999978       0.4175042088615681       -0.32036375678246554
-1.3499999999999974       0.4175042088615687       0.32036375678246654
-1.3499999999999979       0.3703637567824656       0.36750420886156976
-1.2499999999999976       0.4175042088615688       0.32036375678246654
-1.2499999999999973       0.3703637567824656       0.3675042088615697
-1.349999999999998        0.4764297739604453       -0.47357022603955157
-1.3499999999999979       0.523570226039549        -0.4264297739604489
-1.3499999999999976       0.5235702260395508       0.42642977396044873
-1.3499999999999979       0.4764297739604477       0.473570226039552
-1.2499999999999978       0.4764297739604453       -0.47357022603955157
-1.2499999999999978       0.523570226039549        -0.4264297739604489
-1.2499999999999976       0.5235702260395508       0.42642977396044873
-1.2499999999999976       0.4764297739604477       0.473570226039552
-1.301998734829322        0.22525189045793834      0.6944912800237006
-1.2805662432702574       0.21499999999999922      0.7068653347947315
-1.3519987348293225       0.2252518904579383       0.7810938204021447
-1.3305662432702579       0.21499999999999922      0.7934678751731752
-1.3108771324027129       0.24999999999999936      0.6893653347947313
-1.3608771324027131       0.24999999999999922      0.775967875173175
-1.3019987348293223       0.2747481095420602       0.6944912800237009
-1.3519987348293225       0.27474810954206014      0.7810938204021447
-1.2805662432702574       0.28499999999999925      0.7068653347947315
-1.3305662432702579       0.28499999999999925      0.7934678751731752
-1.2591337517111927       0.22525189045793848      0.7192393895657619
-1.3091337517111932       0.2252518904579383       0.8058419299442057
-1.2591337517111927       0.27474810954205997      0.7192393895657619
-1.309133751711193        0.27474810954206014      0.8058419299442057
-1.2502553541378023       0.2499999999999992       0.7243653347947315
-1.3002553541378024       0.2499999999999992       0.8109678751731753
-1.2999999999999976       -0.1500000000000006      -0.09500000000000018
-1.2999999999999976       -0.15000000000000063     -0.05700000000000015
-1.2999999999999976       -0.09000000000000061     -0.09500000000000018
-1.2999999999999976       -0.09000000000000062     -0.05700000000000013
-1.2999999999999976       -0.15000000000000066     0.01899999999999988
-1.2999999999999976       -0.15000000000000066     0.05699999999999989
-1.2999999999999976       -0.09000000000000066     0.018999999999999895
-1.2999999999999976       -0.09000000000000069     0.056999999999999905
-1.2999999999999976       -0.03000000000000062     -0.09500000000000015
-1.2999999999999976       -0.03000000000000065     -0.05700000000000011
-1.2999999999999976       0.029999999999999406     -0.09500000000000011
-1.2999999999999976       0.02999999999999943      -0.05700000000000009
-1.2999999999999976       0.08999999999999943      -0.0950000000000001
-1.2999999999999976       0.08999999999999937      -0.05700000000000009
-1.2999999999999976       -0.15000000000000063     -0.019000000000000142
-1.2999999999999976       -0.09000000000000064     -0.019000000000000104
-1.2999999999999976       -0.030000000000000693    -0.019000000000000117
-1.2999999999999976       0.029999999999999333     -0.019000000000000104
-1.2999999999999976       -0.030000000000000675    0.01899999999999991
-1.2999999999999976       -0.030000000000000686    0.05699999999999993
-1.2999999999999976       -0.1500000000000007      0.09499999999999989
-1.2999999999999976       -0.0900000000000007      0.09499999999999989
-1.2999999999999976       -0.030000000000000675    0.09499999999999992
-1.2999999999999976       0.029999999999999322     0.018999999999999937
-1.2999999999999976       0.08999999999999929      -0.019000000000000076
-1.2999999999999976       0.08999999999999933      0.01899999999999995
-1.2999999999999976       0.14999999999999944      -0.09500000000000008
-1.2999999999999974       0.1499999999999994       -0.057000000000000085
-1.2999999999999976       0.02999999999999936      0.0569999999999999
-1.2999999999999976       0.029999999999999333     0.09499999999999993
-1.2999999999999976       0.0899999999999994       0.056999999999999905
-1.2999999999999974       0.14999999999999938      -0.019000000000000076
-1.2999999999999976       0.14999999999999944      0.018999999999999944
-1.2999999999999976       0.14999999999999938      0.056999999999999953
-1.2999999999999976       0.08999999999999934      0.09499999999999996
-1.2999999999999976       0.14999999999999938      0.09499999999999997
-1.283333333333331        -0.1500000000000006      -0.09500000000000018
-1.283333333333331        -0.15000000000000063     -0.057000000000000176
-1.283333333333331        -0.15000000000000063     -0.01900000000000016
-1.283333333333331        -0.15000000000000066     0.01899999999999988
-1.283333333333331        -0.15000000000000066     0.0569999999999999
-1.2666666666666644       -0.15000000000000063     -0.09500000000000021
-1.2666666666666644       -0.15000000000000063     -0.057000000000000155
-1.2666666666666644       -0.15000000000000063     -0.01900000000000013
-1.2666666666666644       -0.15000000000000066     0.01899999999999988
-1.283333333333331        -0.1500000000000007      0.09499999999999989
-1.2666666666666644       -0.15000000000000066     0.0569999999999999
-1.2499999999999976       -0.1500000000000006      -0.09500000000000018
-1.2499999999999976       -0.15000000000000063     -0.05700000000000015
-1.2499999999999976       -0.15000000000000063     -0.019000000000000142
-1.2499999999999976       -0.15000000000000066     0.01899999999999988
-1.2666666666666644       -0.15000000000000072     0.0949999999999999
-1.2499999999999976       -0.15000000000000066     0.05699999999999989
-1.2499999999999976       -0.1500000000000007      0.09499999999999989
-1.283333333333331        -0.0900000000000006      -0.09500000000000017
-1.283333333333331        -0.030000000000000616    -0.09500000000000014
-1.283333333333331        0.029999999999999395     -0.09500000000000013
-1.283333333333331        0.0899999999999994       -0.0950000000000001
-1.2666666666666646       -0.09000000000000057     -0.09500000000000017
-1.2666666666666646       -0.030000000000000616    -0.09500000000000014
-1.2666666666666644       0.029999999999999426     -0.09500000000000013
-1.2666666666666644       0.08999999999999943      -0.0950000000000001
-1.283333333333331        0.1499999999999994       -0.09500000000000008
-1.2499999999999978       -0.09000000000000061     -0.09500000000000018
-1.2499999999999978       -0.03000000000000062     -0.09500000000000015
-1.2499999999999973       0.029999999999999406     -0.09500000000000011
-1.2499999999999976       0.08999999999999943      -0.0950000000000001
-1.2666666666666644       0.1499999999999995       -0.0950000000000001
-1.2499999999999976       0.14999999999999944      -0.09500000000000008
-1.283333333333331        -0.0900000000000007      0.09499999999999989
-1.283333333333331        -0.0300000000000007      0.09499999999999992
-1.283333333333331        0.02999999999999934      0.09499999999999993
-1.2666666666666644       -0.09000000000000073     0.09499999999999989
-1.2666666666666646       -0.0300000000000007      0.09499999999999992
-1.283333333333331        0.08999999999999934      0.09499999999999996
-1.2666666666666644       0.02999999999999934      0.09499999999999993
-1.2499999999999976       -0.0900000000000007      0.09499999999999989
-1.2499999999999978       -0.030000000000000675    0.09499999999999992
-1.283333333333331        0.14999999999999938      0.09499999999999997
-1.2666666666666644       0.08999999999999934      0.09499999999999996
-1.2499999999999976       0.029999999999999333     0.09499999999999993
-1.2666666666666644       0.1499999999999994       0.09499999999999999
-1.2499999999999976       0.08999999999999934      0.09499999999999996
-1.2499999999999976       0.14999999999999938      0.09499999999999997
-1.2999999999999976       -0.03250000000000071     0.2175000000000004
-1.2999999999999976       -0.03250000000000072     0.2825000000000004
-1.2999999999999976       0.0324999999999993       0.21750000000000042
-1.2999999999999976       0.032499999999999286     0.28250000000000036
-1.283333333333331        -0.0325000000000007      0.2175000000000004
-1.283333333333331        -0.032500000000000716    0.2825000000000004
-1.2666666666666644       -0.03250000000000071     0.21750000000000044
-1.2666666666666644       -0.03250000000000072     0.2825000000000005
-1.2499999999999976       -0.0325000000000007      0.2175000000000004
-1.2499999999999976       -0.032500000000000716    0.2825000000000004
-1.283333333333331        0.03249999999999931      0.21750000000000042
-1.2666666666666644       0.03249999999999932      0.2175000000000005
-1.2499999999999976       0.032499999999999314     0.21750000000000042
-1.283333333333331        0.03249999999999929      0.2825000000000003
-1.2666666666666644       0.0324999999999993       0.2825000000000005
-1.2499999999999976       0.0324999999999993       0.28250000000000036
-1.2999999999999976       -0.032500000000000674    0.3675000000000001
-1.2999999999999976       -0.0325000000000007      0.43250000000000016
-1.2999999999999976       0.03249999999999934      0.3675000000000001
-1.2999999999999976       0.032499999999999314     0.43250000000000016
-1.283333333333331        -0.03250000000000068     0.3675000000000001
-1.283333333333331        -0.03250000000000071     0.43250000000000016
-1.2666666666666644       -0.0325000000000007      0.36750000000000016
-1.2666666666666644       -0.03250000000000073     0.4325000000000003
-1.2499999999999976       -0.0325000000000007      0.3675000000000001
-1.2499999999999976       -0.03250000000000073     0.43250000000000016
-1.283333333333331        0.032499999999999335     0.3675000000000001
-1.2666666666666644       0.03249999999999934      0.36750000000000016
-1.2499999999999976       0.032499999999999314     0.3675000000000001
-1.283333333333331        0.03249999999999931      0.43250000000000016
-1.2666666666666644       0.03249999999999931      0.4325000000000003
-1.2499999999999976       0.032499999999999286     0.43250000000000016
-1.2833333333333308       0.14999999999999944      -0.05700000000000009
-1.2833333333333308       0.1499999999999994       -0.019000000000000076
-1.283333333333331        0.1499999999999994       0.01899999999999995
-1.283333333333331        0.14999999999999938      0.05699999999999993
-1.2666666666666644       0.14999999999999944      -0.05700000000000009
-1.2666666666666644       0.1499999999999994       -0.019000000000000076
-1.2666666666666644       0.1499999999999994       0.018999999999999937
-1.2666666666666644       0.14999999999999938      0.056999999999999953
-1.2499999999999973       0.1499999999999994       -0.057000000000000085
-1.2499999999999973       0.14999999999999938      -0.019000000000000076
-1.2499999999999976       0.14999999999999944      0.018999999999999944
-1.2499999999999976       0.14999999999999938      0.056999999999999953
-1.1999999999999975       0.34999999999999915      0.5499999999999999
-1.1999999999999975       0.34999999999999915      0.7299999999999999
-1.1999999999999975       0.3833333333333325       0.55
-1.1999999999999975       0.3833333333333325       0.73
-1.1999999999999975       0.4166666666666659       0.5499999999999999
-1.1999999999999975       0.4166666666666659       0.7299999999999999
-1.1999999999999975       0.4499999999999992       0.5499999999999999
-1.1999999999999975       0.4499999999999992       0.7299999999999999
-1.0999999999999974       0.3499999999999992       0.5499999999999999
-1.0499999999999974       0.34999999999999915      0.5499999999999999
-1.0999999999999974       0.3499999999999992       0.7299999999999999
-1.0499999999999974       0.34999999999999915      0.7299999999999999
-1.1499999999999975       0.3499999999999991       0.5499999999999999
-1.1499999999999975       0.3499999999999991       0.7299999999999999
-1.0999999999999976       0.3833333333333326       0.7299999999999999
-1.0499999999999976       0.3833333333333325       0.7299999999999998
-1.1499999999999975       0.3833333333333325       0.7299999999999999
-1.0999999999999976       0.416666666666666        0.7299999999999999
-1.0499999999999978       0.416666666666666        0.7300000000000001
-1.1499999999999975       0.41666666666666596      0.7299999999999999
-1.0999999999999976       0.4499999999999993       0.73
-1.0499999999999976       0.4499999999999993       0.7299999999999999
-1.1499999999999975       0.44999999999999934      0.7299999999999999
-1.0999999999999974       0.4499999999999993       0.5499999999999999
-1.0499999999999976       0.4499999999999993       0.5499999999999999
-1.1499999999999972       0.4499999999999992       0.5499999999999998
-1.0999999999999976       -0.45000000000000095     0.6349999999999999
-1.0999999999999976       -0.45000000000000095     0.6799999999999999
-1.1587785252292448       -0.43090169943749557     0.6349999999999999
-1.1587785252292448       -0.43090169943749557     0.6799999999999998
-1.195105651629513        -0.3809016994374956      0.6349999999999998
-1.195105651629513        -0.3809016994374956      0.6799999999999999
-1.195105651629513        -0.3190983005625061      0.6349999999999998
-1.195105651629513        -0.3190983005625061      0.6799999999999999
-1.1587785252292448       -0.269098300562506       0.6349999999999999
-1.1587785252292448       -0.269098300562506       0.6799999999999999
-1.0999999999999976       -0.25000000000000083     0.6349999999999999
-1.0999999999999976       -0.25000000000000083     0.6799999999999999
-1.0412214747707502       -0.4309016994374957      0.6349999999999999
-1.0048943483704822       -0.3809016994374957      0.6349999999999998
-1.0412214747707502       -0.4309016994374957      0.6799999999999999
-1.0048943483704822       -0.3809016994374957      0.6799999999999999
-1.0048943483704822       -0.3190983005625061      0.6349999999999999
-1.0048943483704822       -0.3190983005625061      0.6799999999999998
-1.0412214747707502       -0.2690983005625061      0.6349999999999999
-1.0412214747707502       -0.2690983005625061      0.6799999999999999
-1.0999999999999976       -0.4054559299233831      0.5499999999999999
-1.0999999999999976       -0.4054559299233831      0.6349999999999999
-1.1325961777611264       -0.3948647897468832      0.5499999999999998
-1.1325961777611264       -0.39486478974688316     0.6349999999999997
-1.1527417235208377       -0.36713682478519216     0.55
-1.1527417235208377       -0.36713682478519216     0.6349999999999999
-1.1527417235208377       -0.33286317521480974     0.5499999999999999
-1.1527417235208377       -0.3328631752148095      0.6349999999999999
-1.1325961777611264       -0.3051352102531185      0.5499999999999997
-1.1325961777611264       -0.30513521025311846     0.6349999999999999
-1.0999999999999976       -0.2945440700766187      0.5499999999999999
-1.0999999999999976       -0.2945440700766187      0.6349999999999999
-1.0674038222388693       -0.39486478974688327     0.55
-1.067403822238869        -0.39486478974688316     0.6349999999999999
-1.0472582764791576       -0.3671368247851921      0.5499999999999999
-1.0472582764791574       -0.36713682478519205     0.6349999999999999
-1.0472582764791576       -0.3328631752148096      0.5499999999999999
-1.0472582764791576       -0.3328631752148096      0.6349999999999999
-1.067403822238869        -0.3051352102531186      0.5499999999999999
-1.0674038222388693       -0.3051352102531187      0.6350000000000001
-1.0999999999999976       -0.3826348751480059      0.5499999999999999
-1.1191822983224013       -0.3764021686040416      0.5499999999999999
-1.0999999999999976       -0.3826348751480059      0.6359999999999999
-1.1191822983224013       -0.3764021686040416      0.6359999999999999
-1.1310376106679865       -0.3600847310300391      0.5499999999999999
-1.1310376106679865       -0.3600847310300391      0.636
-1.1310376106679865       -0.33991526896996277     0.5499999999999999
-1.1310376106679865       -0.33991526896996277     0.636
-1.1191822983224011       -0.3235978313959602      0.5499999999999999
-1.1191822983224011       -0.3235978313959602      0.6359999999999999
-1.0999999999999976       -0.31736512485199586     0.5499999999999999
-1.0999999999999976       -0.31736512485199586     0.6359999999999999
-1.080817701677594        -0.3764021686040415      0.5499999999999999
-1.080817701677594        -0.3764021686040415      0.6359999999999999
-1.0808177016775944       -0.32359783139596027     0.5499999999999999
-1.0808177016775944       -0.32359783139596027     0.6359999999999999
-1.0689623893320088       -0.360084731030039       0.5499999999999999
-1.0689623893320088       -0.360084731030039       0.6359999999999999
-1.0689623893320088       -0.3399152689699627      0.5499999999999999
-1.0689623893320088       -0.3399152689699627      0.6359999999999999
-1.0499999999999976       0.3833333333333325       0.5499999999999998
-1.0499999999999978       0.416666666666666        0.5499999999999999
-0.8749999999999978       0.5491666666666667       0.5600000000000002
-0.8499999999999978       0.5325000000000002       0.5599999999999999
-0.8749999999999976       0.5825                   0.5599999999999999
-0.8499999999999976       0.5900000000000001       0.5599999999999999
-0.9249999999999976       0.5825                   0.56
-0.9085058986004466       0.59                     0.5599999999999999
-0.9749999999999975       0.5825                   0.5599999999999999
-0.9914941013995487       0.5900000000000001       0.56
-1.0249999999999977       0.5825                   0.5599999999999999
-1.0499999999999976       0.5900000000000001       0.5599999999999999
-0.9249999999999976       0.48249999999999993      0.5599999999999997
-0.9470633823587755       0.4750000000000001       0.56
-0.8749999999999976       0.48249999999999993      0.5599999999999999
-0.8944048302305558       0.4750000000000002       0.56
-1.0249999999999977       0.5491666666666667       0.5599999999999998
-1.0499999999999974       0.5466039871721052       0.5599999999999999
-0.994273055966697        0.475                    0.5599999999999998
-0.9749999999999976       0.48249999999999993      0.5599999999999998
-1.024999999999998        0.5158333333333334       0.5599999999999999
-1.0499999999999976       0.5092351169960712       0.5599999999999998
-1.0271111352865876       0.475                    0.5599999999999998
-1.0249999999999977       0.48249999999999993      0.5599999999999998
-1.0499999999999976       0.47500000000000003      0.5599999999999999
-1.0499999999999976       0.4849999999999992       0.5599999999999999
-1.0249999999999977       0.5491666666666666       0.74
-1.0249999999999977       0.5824999999999999       0.7399999999999999
-1.0249999999999975       0.5158333333333331       0.7399999999999997
-1.0249999999999977       0.48249999999999993      0.7399999999999999
-0.9249999999999976       0.48249999999999993      0.7399999999999999
-0.8749999999999977       0.48249999999999993      0.7399999999999999