% Model:              FEM_001_surf_surf.mph
% Version:            COMSOL 6.0.0.405
% Date:               Sep 15 2022, 21:09
% Dimension:          3
% Nodes:              5433
% Elements:           9181
% Expressions:        1
% Description:        Material settings
% Length unit:        m
% Coordinates
-1.3642857142857119       -0.4808485377699566      -0.43084853776995613
-1.364285714285712        -0.41308544505206285     -0.3630854450520623
-1.3642857142857119       -0.4101378596513019      -0.501559215888611
-1.3642857142857119       -0.34237476693340796     -0.4337961231707171
-1.3642857142857119       -0.4837961231707175      -0.29237476693340747
-1.3642857142857119       -0.5515592158886115      -0.36013785965130124
-1.3499999999999974       -0.5651118344321902      -0.37369047819488005
-1.2499999999999976       -0.5494974746830591      -0.358076118445749
-1.3499999999999974       -0.5707106781186555      -0.37928932188134545
-1.2499999999999976       -0.5707106781186555      -0.37928932188134545
-1.2499999999999976       -0.5282842712474627      -0.3368629150101526
-1.3499999999999976       -0.47024350462713876     -0.2788221483898287
-1.2499999999999978       -0.5070710678118663      -0.3156497115745562
-1.2499999999999978       -0.48585786437626993     -0.29443650813895983
-1.2499999999999976       -0.46464466094067336     -0.27322330470336337
-1.3499999999999976       -0.46464466094067336     -0.27322330470336337
-1.3499999999999976       -0.4944011563135355      -0.44440115631353483
-1.3499999999999976       -0.4236904781948807      -0.5151118344321897
-1.3642857142857119       -0.5515592158886118      0.36013785965130113
-1.3642857142857119       -0.48084853776995706     0.43084853776995585
-1.3642857142857119       -0.48379612317071796     0.2923747669334072
-1.364285714285712        -0.4130854450520631      0.3630854450520619
-1.3642857142857119       -0.4101378596513022      0.5015592158886105
-1.3642857142857119       -0.34237476693340835     0.43379612317071664
-1.2499999999999976       -0.5707106781186558      0.37928932188134523
-1.3499999999999976       -0.5651118344321905      0.3736904781948799
-1.2499999999999978       -0.5494974746830595      0.35807611844574877
-1.3499999999999976       -0.5707106781186558      0.37928932188134523
-1.2499999999999976       -0.5282842712474631      0.3368629150101523
-1.2499999999999978       -0.5070710678118666      0.3156497115745559
-1.2499999999999978       -0.4858578643762701      0.2944365081389594
-1.3499999999999976       -0.47024350462713915     0.27882214838982844
-1.3499999999999976       -0.46464466094067375     0.27322330470336303
-1.2499999999999976       -0.4646446609406737      0.27322330470336303
-1.3499999999999976       -0.4944011563135357      0.4444011563135346
-1.3499999999999976       -0.4236904781948809      0.5151118344321893
-1.3499999999999974       -0.399532826508484       -0.3495328265084835
-1.3499999999999976       -0.3288221483898292      -0.42024350462713833
-1.3499999999999976       -0.3995328265084843      0.34953282650848316
-1.3499999999999976       -0.32882214838982954     0.4202435046271379
-1.2499999999999976       -0.36564971157455656     -0.45707106781186574
-1.2499999999999976       -0.4080761184457495      -0.4994974746830586
-1.3499999999999976       -0.42928932188134594     -0.520710678118655
-1.2499999999999976       -0.42928932188134594     -0.520710678118655
-1.2499999999999976       -0.3868629150101531      -0.4782842712474622
-1.3499999999999976       -0.3232233047033638      -0.41464466094067287
-1.2499999999999976       -0.3232233047033638      -0.41464466094067287
-1.2499999999999978       -0.34443650813896026     -0.43585786437626944
-1.3499999999999976       -0.4292893218813463      0.5207106781186547
-1.2499999999999976       -0.4292893218813463      0.5207106781186547
-1.2499999999999978       -0.40807611844574987     0.4994974746830583
-1.2499999999999976       -0.3868629150101534      0.4782842712474618
-1.2499999999999976       -0.36564971157455706     0.45707106781186535
-1.2499999999999978       -0.3444365081389606      0.435857864376269
-1.3499999999999976       -0.3232233047033642      0.41464466094067254
-1.2499999999999976       -0.3232233047033642      0.41464466094067254
-1.364285714285712        0.5515592158886088       -0.3601378596513019
-1.3642857142857123       0.4808485377699532       -0.430848537769956
-1.364285714285712        0.4837961231707157       -0.2923747669334072
-1.364285714285712        0.4130854450520601       -0.36308544505206114
-1.364285714285712        0.34237476693340435      -0.43379612317071503
-1.364285714285712        0.4101378596512975       -0.5015592158886099
-1.3499999999999979       0.42928932188134145      -0.5207106781186541
-1.2499999999999978       0.42928932188134145      -0.5207106781186541
-1.3499999999999979       0.42369047819487615      -0.5151118344321887
-1.2499999999999978       0.40807611844574526      -0.49949747468305744
-1.249999999999998        0.386862915010149        -0.4782842712474608
-1.2499999999999978       0.36564971157455284      -0.457071067811864
-1.2499999999999978       0.34443650813895665      -0.43585786437626745
-1.3499999999999976       0.32882214838982576      -0.4202435046271361
-1.2499999999999978       0.3232233047033605       -0.4146446609406707
-1.3499999999999976       0.32322330470336047      -0.4146446609406707
-1.349999999999998        0.3995328265084814       -0.3495328265084823
-1.3499999999999979       0.47024350462713704      -0.27882214838982833
-1.3642857142857119       0.41308544505206124      0.3630854450520622
-1.3642857142857119       0.48084853776995523      0.43084853776995613
-1.3642857142857119       0.483796123170716        0.29237476693340747
-1.3642857142857119       0.5515592158886099       0.3601378596513013
-1.3642857142857119       0.4101378596513004       0.501559215888611
-1.3642857142857119       0.34237476693340646      0.4337961231707171
-1.3499999999999976       0.32882214838982776      0.42024350462713833
-1.2499999999999976       0.34443650813895876      0.43585786437626933
-1.3499999999999976       0.3232233047033623       0.41464466094067287
-1.2499999999999976       0.32322330470336236      0.41464466094067287
-1.2499999999999976       0.3656497115745553       0.45707106781186574
-1.2499999999999976       0.38686291501015163      0.47828427124746214
-1.3499999999999976       0.42369047819487915      0.5151118344321897
-1.3499999999999976       0.4292893218813445       0.520710678118655
-1.2499999999999976       0.4292893218813445       0.520710678118655
-1.2499999999999976       0.40807611844574804      0.49949747468305855
-1.3499999999999974       0.39953282650848243      0.3495328265084834
-1.3499999999999976       0.47024350462713727      0.2788221483898287
-1.3499999999999979       0.49440115631353176      -0.4444011563135348
-1.3499999999999979       0.5651118344321874       -0.3736904781948808
-1.3499999999999976       0.5651118344321887       0.37369047819488005
-1.3499999999999979       0.494401156313534        0.44440115631353483
-1.3499999999999979       0.5707106781186526       -0.37928932188134623
-1.2499999999999978       0.5707106781186526       -0.37928932188134623
-1.249999999999998        0.5494974746830565       -0.35807611844574955
-1.249999999999998        0.5282842712474604       -0.33686291501015286
-1.249999999999998        0.485857864376268        -0.2944365081389595
-1.3499999999999979       0.4646446609406717       -0.2732233047033628
-1.249999999999998        0.5070710678118642       -0.3156497115745562
-1.2499999999999978       0.4646446609406717       -0.2732233047033628
-1.2499999999999978       0.4858578643762684       0.2944365081389598
-1.3499999999999976       0.4646446609406719       0.27322330470336337
-1.2499999999999976       0.4646446609406719       0.27322330470336337
-1.2499999999999976       0.5070710678118648       0.3156497115745561
-1.2499999999999976       0.5494974746830577       0.35807611844574905
-1.2499999999999978       0.5282842712474612       0.33686291501015264
-1.3499999999999976       0.5707106781186541       0.3792893218813455
-1.2499999999999976       0.5707106781186541       0.3792893218813455
-1.3499999999999976       -0.5000000000000008      -0.45000000000000034
-1.2499999999999978       -0.5000000000000008      -0.45000000000000034
-1.3499999999999976       -0.500000000000001       0.44999999999999996
-1.2499999999999976       -0.500000000000001       0.44999999999999996
-1.3499999999999976       -0.3939339828220186      -0.34393398282201804
-1.3499999999999979       -0.39393398282201897     0.3439339828220178
-1.2499999999999976       -0.3939339828220186      -0.34393398282201804
-1.2499999999999976       -0.3939339828220189      0.3439339828220178
-1.3499999999999976       0.393933982822016        -0.34393398282201676
-1.2499999999999978       0.3939339828220161       -0.34393398282201676
-1.3499999999999976       0.3939339828220171       0.3439339828220182
-1.2499999999999976       0.39393398282201714      0.34393398282201804
-1.3499999999999979       0.49999999999999717      -0.4500000000000002
-1.3499999999999976       0.4999999999999992       0.4500000000000003
-1.2499999999999978       0.49999999999999717      -0.4500000000000002
-1.2499999999999976       0.4999999999999992       0.4500000000000003
-1.3519987348293225       0.2252518904579383       0.7810938204021447
-1.3305662432702579       0.21499999999999922      0.7934678751731752
-1.3305662432702579       0.24999999999999922      0.7934678751731752
-1.3091337517111932       0.2252518904579383       0.8058419299442057
-1.3002553541378024       0.2499999999999992       0.8109678751731753
-1.309133751711193        0.27474810954206014      0.8058419299442057
-1.3305662432702579       0.28499999999999925      0.7934678751731752
-1.3519987348293225       0.27474810954206014      0.7810938204021447
-1.3608771324027131       0.24999999999999922      0.775967875173175
-1.2805662432702574       0.21499999999999922      0.7068653347947315
-1.301998734829322        0.22525189045793834      0.6944912800237006
-1.2805662432702574       0.28499999999999925      0.7068653347947315
-1.3019987348293223       0.2747481095420602       0.6944912800237009
-1.3108771324027129       0.24999999999999936      0.6893653347947313
-1.2591337517111927       0.22525189045793848      0.7192393895657619
-1.2502553541378023       0.2499999999999992       0.7243653347947315
-1.2591337517111927       0.27474810954205997      0.7192393895657619
-1.2946208155685281       0.19999999999999923      0.6872039183111873
-1.2755662432702575       0.19999999999999923      0.698205080756887
-1.2951662541187696       0.20541540525979193      0.6868890092173787
-1.3112424794913982       0.2216638186789618       0.6776073961709383
-1.3188675134594794       0.19999999999999923      0.6732050807568869
-1.3188675134594794       0.24999999999999922      0.6732050807568868
-1.3002961322023021       0.2322640036786393       0.6410385048527236
-1.3009643281286574       0.1999999999999993       0.6421958541465818
-1.3188675134594794       0.2999999999999992       0.6732050807568869
-1.2995824297279797       0.26559964697010424      0.6398023359057098
-1.2861518741669016       0.24919506947103182      0.6165399313000459
-1.2999961168842467       0.2999999999999992       0.640518863078803
-1.2775534890820044       0.19999999999999923      0.6016470914699616
-1.271330782790912        0.24888961705465062      0.5908690480132112
-1.2780159172617653       0.29999999999999916      0.6024480405721593
-1.2477350269189609       0.19999999999999923      0.5500000000000002
-1.2477350269189609       0.2999999999999992       0.5500000000000002
-1.2647079042400144       0.19999999999999923      0.6883226920934641
-1.256511670971987        0.19999999999999926      0.709206243202587
-1.2861075390370686       0.19999999999999923      0.6725632494505686
-1.2428856464498408       0.19999999999999923      0.6954972420634994
-1.2322649730810358       0.19999999999999923      0.7232050807568873
-1.2572919981318071       0.19999999999999923      0.66256219696262
-1.2095780915519303       0.19999999999999926      0.6839102492831812
-1.2397673100105107       0.19999999999999923      0.6296252564084218
-1.1778898326054865       0.19999999999999923      0.6290245747845421
-1.2180314383891389       0.19999999999999923      0.6008987377682175
-1.1322649730810352       0.19999999999999923      0.5500000000000002
-1.2946208155685284       0.2999999999999992       0.6872039183111873
-1.2951662541187714       0.29458459474020565      0.6868890092173778
-1.2755662432702575       0.2999999999999992       0.698205080756887
-1.311242479491399        0.27833618132103577      0.6776073961709381
-1.3009036698410703       0.2058593707340323       0.6951235160894486
-1.2805662432702576       0.19999999999999923      0.7068653347947313
-1.3009036698410696       0.2941406292659664       0.6951235160894487
-1.2805662432702576       0.2999999999999992       0.7068653347947313
-1.3169657468031555       0.22291879750335333      0.6858500716316438
-1.316965746803155        0.2770812024966455       0.6858500716316439
-1.3238675134594795       0.2499999999999995       0.6818653347947311
-1.2843063830409729       0.2999999999999992       0.668349312968145
-1.256511670971987        0.2999999999999992       0.709206243202587
-1.2425940754474794       0.2999999999999992       0.6835891094404263
-1.2322649730810358       0.2999999999999992       0.7232050807568873
-1.2678892402081365       0.2999999999999992       0.6470524559033481
-1.2360820828170673       0.2999999999999992       0.6342533849986849
-1.2081090712458171       0.2999999999999992       0.6813658314756429
-1.22903189905662         0.2999999999999992       0.5922954443672641
-1.1743728135029738       0.29999999999999916      0.6229329190077999
-1.1909316155583534       0.29999999999999927      0.5500000000000004
-1.1322649730810355       0.2999999999999992       0.5500000000000002
-1.2999999999999976       -0.15000000000000063     -0.031666666666666815
-1.299999999999998        -0.1500000000000007      0.03166666666666655
-1.2999999999999976       -0.05000000000000064     -0.03166666666666679
-1.2999999999999976       -0.1500000000000006      -0.09500000000000018
-1.2999999999999976       -0.0500000000000006      -0.09500000000000013
-1.2999999999999976       -0.05000000000000065     0.031666666666666614
-1.2999999999999976       0.04999999999999941      -0.09500000000000011
-1.2999999999999976       0.04999999999999939      -0.031666666666666766
-1.2999999999999976       -0.1500000000000007      0.09499999999999989
-1.2999999999999976       -0.050000000000000676    0.0949999999999999
-1.2999999999999978       0.04999999999999935      0.09499999999999995
-1.2999999999999976       0.04999999999999943      0.031666666666666586
-1.2999999999999976       0.14999999999999944      -0.09500000000000008
-1.2999999999999976       0.14999999999999944      -0.031666666666666746
-1.2999999999999976       0.1499999999999994       0.03166666666666662
-1.2999999999999976       0.14999999999999938      0.09499999999999997
-1.2749999999999977       -0.1500000000000006      -0.09500000000000018
-1.2749999999999977       -0.15000000000000063     -0.031666666666666794
-1.2499999999999976       -0.1500000000000006      -0.09500000000000018
-1.274999999999998        -0.15000000000000066     0.03166666666666657
-1.2499999999999976       -0.15000000000000063     -0.031666666666666815
-1.2499999999999978       -0.1500000000000007      0.03166666666666655
-1.2749999999999977       -0.1500000000000007      0.09499999999999989
-1.2499999999999976       -0.1500000000000007      0.09499999999999989
-1.2749999999999977       -0.05000000000000056     -0.09500000000000015
-1.2499999999999976       -0.0500000000000006      -0.09500000000000013
-1.2749999999999977       0.04999999999999939      -0.09500000000000011
-1.2749999999999977       0.14999999999999944      -0.09500000000000008
-1.2499999999999973       0.04999999999999941      -0.09500000000000011
-1.2499999999999976       0.14999999999999944      -0.09500000000000008
-1.2749999999999977       -0.05000000000000067     0.0949999999999999
-1.2499999999999976       -0.050000000000000676    0.0949999999999999
-1.274999999999998        0.049999999999999364     0.09499999999999995
-1.2749999999999977       0.1499999999999994       0.09499999999999997
-1.2499999999999978       0.04999999999999935      0.09499999999999995
-1.2499999999999976       0.14999999999999938      0.09499999999999997
-1.2999999999999976       0.032499999999999286     0.28250000000000036
-1.2999999999999976       0.0324999999999993       0.21750000000000042
-1.2999999999999976       -0.03250000000000072     0.2825000000000004
-1.2999999999999976       -0.03250000000000071     0.2175000000000004
-1.2749999999999977       -0.032500000000000716    0.2825000000000004
-1.2749999999999977       -0.0325000000000007      0.2175000000000004
-1.2499999999999976       -0.032500000000000716    0.2825000000000004
-1.2499999999999976       -0.0325000000000007      0.2175000000000004
-1.2749999999999977       0.03249999999999931      0.21750000000000042
-1.2499999999999976       0.032499999999999314     0.21750000000000042
-1.2749999999999977       0.03249999999999929      0.28250000000000036
-1.2499999999999976       0.0324999999999993       0.28250000000000036
-1.2999999999999976       0.032499999999999314     0.43250000000000016
-1.2999999999999976       0.03249999999999934      0.3675000000000001
-1.2999999999999976       -0.0325000000000007      0.43250000000000016
-1.2999999999999976       -0.032500000000000674    0.3675000000000001
-1.2749999999999977       -0.03250000000000071     0.43250000000000016
-1.2749999999999977       -0.03250000000000068     0.3675000000000001
-1.2499999999999976       -0.03250000000000073     0.43250000000000016
-1.2499999999999976       -0.0325000000000007      0.3675000000000001
-1.2749999999999977       0.03249999999999933      0.3675000000000001
-1.2499999999999976       0.032499999999999314     0.3675000000000001
-1.2749999999999977       0.0324999999999993       0.43250000000000016
-1.2499999999999976       0.032499999999999286     0.43250000000000016
-1.274999999999998        0.1499999999999994       -0.03166666666666671
-1.2499999999999978       0.14999999999999944      -0.031666666666666746
-1.2749999999999977       0.1499999999999994       0.03166666666666663
-1.2499999999999976       0.1499999999999994       0.03166666666666662
-1.2602288166994453       0.20585937073403224      0.7186071535000143
-1.24416673973736         0.22291879750335328      0.7278805979578188
-1.2372649730810357       0.2499999999999992       0.7318653347947316
-1.2441667397373597       0.27708120249664536      0.7278805979578188
-1.2602288166994453       0.2941406292659663       0.718607153500014
-1.2559662324217444       0.2054154052597924       0.7095211522963958
-1.2398900070491163       0.2216638186789621       0.7188027653428357
-1.2322649730810358       0.24999999999999922      0.7232050807568872
-1.2398900070491161       0.27833618132103594      0.7188027653428359
-1.2559662324217438       0.2945845947402059       0.7095211522963959
-1.2499999999999976       0.5999999999999992       0.5599999999999999
-1.2499999999999976       0.5999999999999992       0.5499999999999999
-1.2499999999999976       0.5740007326849308       0.5599999999999999
-1.2499999999999976       0.5716407313828451       0.5499999999999999
-1.2499999999999978       0.5401544735812377       0.5599999999999999
-1.2499999999999978       0.5319109507185698       0.5499999999999999
-1.2499999999999976       0.48499999999999915      0.5599999999999999
-1.2499999999999976       0.4749999999999992       0.5499999999999999
-1.2499999999999976       0.47499999999999926      0.6119815407470824
-1.2499999999999976       0.48499999999999915      0.6170574125674823
-1.2499999999999976       0.4749999999999992       0.6499999999999999
-1.2499999999999976       0.4849999999999991       0.6499999999999999
-1.214803785362512        0.4749999999999992       0.6000379684649961
-1.1974134550857853       0.4749999999999991       0.5499999999999998
-1.0592568970474068       0.47499999999999926      0.5602980807135908
-1.0657647938479655       0.4749999999999992       0.5499999999999998
-1.0499999999999976       0.47500000000000003      0.5499999999999999
-1.0499999999999976       0.47500000000000003      0.5599999999999999
-1.0712293185459372       0.47499999999999926      0.5682058583435577
-1.0868492476470994       0.4749999999999992       0.5499999999999998
-1.2206574924260207       0.4749999999999992       0.6369840138003223
-1.182662232230191        0.4749999999999992       0.6017297421242576
-1.1929037040566397       0.4749999999999992       0.6232838629993485
-1.2297552192040992       0.47499999999999903      0.6702447807958978
-1.1539394694366882       0.47499999999999926      0.55
-1.1162866734959003       0.4749999999999991       0.5499999999999998
-1.1510641102429369       0.4749999999999992       0.5856115402781207
-1.0955095369970649       0.4749999999999992       0.5812099703339112
-1.0499999999999976       0.4749999999999992       0.5733679931227378
-1.068357207617347        0.47499999999999926      0.5857185133787725
-1.1863927268617998       0.4749999999999992       0.6579475797250103
-1.1598860209489068       0.4749999999999992       0.6260265991588554
-1.1999999999999975       0.4749999999999991       0.6999999999999996
-1.1194357088925029       0.4749999999999992       0.6192628130945327
-1.0769447619509196       0.47499999999999926      0.6105920477877881
-1.0499999999999976       0.4749999999999992       0.5964598813502356
-1.1417485386604944       0.4749999999999992       0.6553476923878607
-1.164323623754731        0.4749999999999992       0.6914288068397548
-1.1702447807958958       0.4749999999999992       0.7297552192041016
-1.1477035603589454       0.4749999999999992       0.7125619041391679
-1.0934320404465812       0.4749999999999992       0.654501834459565
-1.0499999999999976       0.4749999999999992       0.6341785570558253
-1.1279181669893519       0.4749999999999992       0.6887170577852525
-1.1286284851797739       0.4749999999999992       0.7193826378724625
-1.1499999999999975       0.47499999999999915      0.7499999999999999
-1.0933251822299188       0.4749999999999992       0.7057222326771424
-1.0499999999999974       0.47499999999999903      0.6806635764787324
-1.1188958802073392       0.4749999999999991       0.7499999999999998
-1.0687536187358277       0.47499999999999926      0.7176658403700328
-1.0811041197926563       0.47499999999999926      0.7499999999999999
-1.0499999999999978       0.47499999999999926      0.7205885497460667
-1.0499999999999976       0.4749999999999992       0.7499999999999999
-1.2297552192040997       0.48499999999999915      0.670244780795898
-1.1999999999999977       0.4849999999999992       0.6999999999999997
-1.170244780795896        0.48499999999999927      0.7297552192041018
-1.1499999999999977       0.48499999999999915      0.7499999999999999
-1.2084980044741627       0.48499999999999915      0.5966563009639984
-1.1807675875028585       0.4849999999999991       0.5599999999999998
-1.2205426739468752       0.48499999999999915      0.6297597506124574
-1.214154312743478        0.48499999999999915      0.6504932457472343
-1.1051885028050323       0.48499999999999915      0.5876280642985537
-1.0854561361014419       0.4849999999999992       0.5599999999999998
-1.1243032495343475       0.48499999999999904      0.5599999999999998
-1.0499999999999976       0.4849999999999992       0.5599999999999999
-1.0631063732280555       0.4849999999999992       0.5599999999999999
-1.0499999999999976       0.4849999999999992       0.5729595628869979
-1.0716736156506959       0.4849999999999992       0.581022670751542
-1.152440443705952        0.48499999999999915      0.5985887329357261
-1.1876417357034843       0.48499999999999915      0.6325370963107105
-1.194457495030269        0.48499999999999915      0.6706594614081308
-1.1137941594319893       0.48499999999999915      0.6214273022615365
-1.0788679622307205       0.4849999999999992       0.6121970713872117
-1.0499999999999974       0.4849999999999992       0.5947783762422515
-1.14472256354433         0.48499999999999915      0.6514634722926196
-1.1641931538069004       0.48499999999999915      0.694619969856504
-1.1468273326578293       0.48499999999999915      0.7191761719435321
-1.0909085705452637       0.4849999999999992       0.659411123437269
-1.0499999999999976       0.4849999999999993       0.6320022917936439
-1.123527866883677        0.48499999999999915      0.6953826101443051
-1.1268291862157906       0.48499999999999915      0.7292340122043913
-1.0776578812988222       0.4849999999999992       0.6986489129376152
-1.0499999999999976       0.48499999999999915      0.6800452942930788
-1.0989826007368337       0.48499999999999915      0.7256468765245783
-1.1188958802073392       0.48499999999999915      0.7499999999999999
-1.0721560002563737       0.4849999999999992       0.7307853273574954
-1.0499999999999974       0.4849999999999991       0.7206901678883977
-1.081104119792656        0.4849999999999992       0.75
-1.0499999999999976       0.4849999999999992       0.7499999999999999
-1.2311395696249103       0.5821792879574214       0.5599999999999999
-1.2214850553801424       0.5999999999999992       0.5599999999999999
-1.0499999999999976       0.6                      0.5599999999999999
-1.0825113032605438       0.5999999999999993       0.56
-1.0499999999999976       0.5900000000000001       0.5599999999999999
-1.0738842847544572       0.5667607774551667       0.5599999999999999
-1.0499999999999976       0.5491437019418623       0.5599999999999999
-1.0764067211493484       0.5348302294750596       0.5599999999999999
-1.2035685884269174       0.5757872159871702       0.5599999999999999
-1.1835567735043542       0.5999999999999992       0.5599999999999999
-1.22932632216            0.5639692796158439       0.5599999999999999
-1.1109558796690568       0.5631869852574228       0.5599999999999999
-1.1322467318790372       0.5999999999999992       0.5599999999999998
-1.1659209145783132       0.5642029295411811       0.5599999999999999
-1.0499999999999978       0.5112054335689081       0.56
-1.0742156315912494       0.5035130951177477       0.5599999999999999
-1.059953113982308        0.49703899063445806      0.5599999999999999
-1.102186306557467        0.513492670385706        0.5599999999999999
-1.2045569726313177       0.5332960413125852       0.5599999999999999
-1.149084815518745        0.5227614470610897       0.5599999999999999
-1.2215693674896          0.5999999999999993       0.5499999999999999
-1.0499999999999976       0.6                      0.5499999999999999
-1.0822061864350465       0.599999999999999        0.5499999999999998
-1.1836657902524128       0.5999999999999992       0.5499999999999998
-1.131925252648598        0.5999999999999993       0.5499999999999999
-1.2174829299546055       0.23668426852395197      0.6976018310222362
-1.217017517234811        0.26712329545351216      0.6967957125450631
-1.193255921927267        0.25044335943993246      0.6556394222035069
-1.1621053108698478       0.25183838134031983      0.6016849811652408
-1.2183888035088979       -0.16888317318295232     0.5499999999999999
-1.2183888035088979       -0.16888317318295232     0.5727
-1.218388803508898        -0.10198580675234234     0.5499999999999999
-1.218388803508898        -8.831731829522082E-4    0.5727
-1.218388803508898        -0.0020620025146761284   0.5499999999999999
-1.218388803508898        0.09923598623551516      0.5499999999999999
-1.218388803508898        0.1671168268170478       0.5727
-1.218388803508898        0.1671168268170478       0.5499999999999999
-1.0943888035088978       -0.16888317318295232     0.5727
-1.1424911990780882       -0.1688831731829523      0.5499999999999999
-1.0462864079397076       -0.16888317318295232     0.5499999999999999
-0.9703888035088981       -0.16888317318295232     0.5727
-0.9703888035088981       -0.16888317318295232     0.5499999999999999
-1.1424911990780884       0.16711682681704776      0.5499999999999999
-1.0943888035088978       0.16711682681704773      0.5726999999999999
-1.0462864079397074       0.16711682681704776      0.5499999999999998
-0.9703888035088981       0.1671168268170478       0.5499999999999999
-0.9703888035088981       0.1671168268170478       0.5727
-1.1999999999999975       0.34999999999999915      0.7299999999999999
-1.1999999999999975       0.3833333333333325       0.73
-1.1999999999999975       0.34999999999999915      0.5499999999999999
-1.1999999999999975       0.3833333333333325       0.55
-1.1999999999999975       0.4166666666666659       0.7299999999999999
-1.1999999999999975       0.4166666666666659       0.5499999999999999
-1.1999999999999975       0.4499999999999992       0.7299999999999999
-1.1999999999999975       0.4499999999999992       0.5499999999999999
-1.0999999999999974       0.3499999999999992       0.7299999999999999
-1.1499999999999975       0.3499999999999991       0.7299999999999999
-1.0999999999999974       0.3499999999999992       0.5499999999999999
-1.0499999999999974       0.34999999999999915      0.5499999999999999
-1.0499999999999974       0.34999999999999915      0.7299999999999999
-1.1499999999999975       0.3499999999999991       0.5499999999999999
-1.1499999999999975       0.3833333333333325       0.7299999999999999
-1.0999999999999976       0.38333333333333264      0.7299999999999999
-1.0499999999999976       0.3833333333333325       0.7299999999999998
-1.0499999999999978       0.416666666666666        0.7300000000000001
-1.0999999999999976       0.416666666666666        0.7299999999999999