% Model:              FEM_001_surf_surf.mph
% Version:            COMSOL 6.0.0.405
% Date:               Sep 19 2022, 18:36
% Dimension:          3
% Nodes:              8609
% Elements:           14696
% Expressions:        1
% Description:        Material settings
% Length unit:        m
% Coordinates
-1.364285714285712        -0.5044187638095083      -0.4072783117304045
-1.3642857142857117       -0.4366556710916144      -0.33951521901251064
-1.3642857142857119       -0.45727831173040506     -0.45441876380950774
-1.3642857142857119       -0.3895152190125112      -0.3866556710916139
-1.3642857142857119       -0.4837961231707175      -0.29237476693340747
-1.3642857142857119       -0.5515592158886115      -0.36013785965130124
-1.3642857142857119       -0.34237476693340796     -0.4337961231707171
-1.3642857142857119       -0.4101378596513019      -0.501559215888611
-1.2499999999999976       -0.5707106781186555      -0.37928932188134545
-1.2499999999999976       -0.5494974746830591      -0.358076118445749
-1.3499999999999974       -0.5707106781186555      -0.37928932188134545
-1.3499999999999974       -0.5651118344321902      -0.37369047819488005
-1.2499999999999976       -0.5282842712474627      -0.3368629150101526
-1.2499999999999978       -0.5070710678118663      -0.3156497115745562
-1.3499999999999976       -0.47024350462713876     -0.2788221483898287
-1.2499999999999978       -0.48585786437626993     -0.29443650813895983
-1.2499999999999976       -0.46464466094067336     -0.27322330470336337
-1.3499999999999976       -0.46464466094067336     -0.27322330470336337
-1.3499999999999974       -0.47083093027398387     -0.46797138235308644
-1.3499999999999976       -0.4236904781948807      -0.5151118344321897
-1.3499999999999976       -0.5179713823530872      -0.4208309302739833
-1.3642857142857119       -0.5515592158886118      0.36013785965130113
-1.364285714285712        -0.5044187638095087      0.40727831173040435
-1.3642857142857119       -0.48379612317071796     0.2923747669334072
-1.3642857142857119       -0.43665567109161474     0.3395152190125103
-1.364285714285712        -0.4572783117304055      0.4544187638095075
-1.3642857142857123       -0.3895152190125117      0.3866556710916136
-1.3642857142857119       -0.4101378596513022      0.5015592158886105
-1.3642857142857119       -0.34237476693340835     0.43379612317071664
-1.3499999999999976       -0.5707106781186558      0.37928932188134523
-1.3499999999999976       -0.5651118344321905      0.3736904781948799
-1.2499999999999976       -0.5707106781186558      0.37928932188134523
-1.2499999999999978       -0.5494974746830595      0.35807611844574877
-1.2499999999999976       -0.5282842712474631      0.3368629150101523
-1.3499999999999976       -0.47024350462713915     0.27882214838982844
-1.2499999999999978       -0.4858578643762701      0.2944365081389594
-1.2499999999999976       -0.4646446609406737      0.27322330470336303
-1.3499999999999976       -0.46464466094067375     0.27322330470336303
-1.2499999999999978       -0.5070710678118666      0.3156497115745559
-1.3499999999999976       -0.4236904781948809      0.5151118344321893
-1.3499999999999976       -0.47083093027398415     0.4679713823530863
-1.3499999999999976       -0.5179713823530874      0.42083093027398305
-1.3499999999999976       -0.42310305254803565     -0.32596260046893194
-1.3499999999999979       -0.3759626004689325      -0.37310305254803516
-1.3499999999999976       -0.3288221483898292      -0.42024350462713833
-1.3499999999999976       -0.42310305254803593     0.32596260046893155
-1.3499999999999976       -0.3759626004689327      0.3731030525480348
-1.3499999999999976       -0.32882214838982954     0.4202435046271379
-1.3499999999999976       -0.42928932188134594     -0.520710678118655
-1.2499999999999976       -0.42928932188134594     -0.520710678118655
-1.2499999999999976       -0.4080761184457495      -0.4994974746830586
-1.2499999999999976       -0.3868629150101531      -0.4782842712474622
-1.2499999999999978       -0.34443650813896026     -0.43585786437626944
-1.2499999999999976       -0.3232233047033638      -0.41464466094067287
-1.3499999999999976       -0.3232233047033638      -0.41464466094067287
-1.2499999999999976       -0.36564971157455656     -0.45707106781186574
-1.2499999999999976       -0.4292893218813463      0.5207106781186547
-1.2499999999999978       -0.40807611844574987     0.4994974746830583
-1.3499999999999976       -0.4292893218813463      0.5207106781186547
-1.2499999999999976       -0.36564971157455706     0.45707106781186535
-1.2499999999999978       -0.3444365081389606      0.435857864376269
-1.2499999999999976       -0.3868629150101534      0.4782842712474618
-1.2499999999999976       -0.3232233047033642      0.41464466094067254
-1.3499999999999976       -0.3232233047033642      0.41464466094067254
-1.364285714285712        0.504418763809505        -0.40727831173040463
-1.364285714285712        0.4572783117304012       -0.4544187638095072
-1.364285714285712        0.43665567109161196      -0.3395152190125098
-1.364285714285712        0.4837961231707157       -0.2923747669334072
-1.364285714285712        0.5515592158886088       -0.3601378596513019
-1.3642857142857123       0.3895152190125082       -0.38665567109161253
-1.364285714285712        0.34237476693340435      -0.43379612317071503
-1.364285714285712        0.4101378596512975       -0.5015592158886099
-1.3499999999999979       0.42928932188134145      -0.5207106781186541
-1.2499999999999978       0.42928932188134145      -0.5207106781186541
-1.3499999999999979       0.42369047819487615      -0.5151118344321887
-1.2499999999999978       0.40807611844574526      -0.49949747468305744
-1.249999999999998        0.386862915010149        -0.4782842712474608
-1.2499999999999978       0.36564971157455284      -0.457071067811864
-1.2499999999999978       0.34443650813895665      -0.43585786437626745
-1.3499999999999976       0.32882214838982576      -0.4202435046271361
-1.3499999999999976       0.32322330470336047      -0.4146446609406707
-1.2499999999999978       0.3232233047033605       -0.4146446609406707
-1.3499999999999979       0.42310305254803326      -0.32596260046893094
-1.3499999999999979       0.47024350462713704      -0.27882214838982833
-1.3499999999999979       0.37596260046892954      -0.3731030525480336
-1.3642857142857119       0.483796123170716        0.29237476693340747
-1.364285714285712        0.4366556710916129       0.3395152190125107
-1.3642857142857119       0.5515592158886099       0.3601378596513013
-1.3642857142857117       0.5044187638095068       0.4072783117304044
-1.3642857142857119       0.38951521901250974      0.38665567109161386
-1.3642857142857117       0.45727831173040356      0.45441876380950774
-1.3642857142857119       0.4101378596513004       0.501559215888611
-1.3642857142857119       0.34237476693340646      0.4337961231707171
-1.2499999999999976       0.32322330470336236      0.41464466094067287
-1.2499999999999976       0.34443650813895876      0.43585786437626933
-1.3499999999999976       0.3232233047033623       0.41464466094067287
-1.3499999999999976       0.32882214838982776      0.42024350462713833
-1.2499999999999976       0.3656497115745553       0.45707106781186574
-1.2499999999999976       0.38686291501015163      0.47828427124746214
-1.3499999999999976       0.42369047819487915      0.5151118344321897
-1.2499999999999976       0.40807611844574804      0.49949747468305855
-1.2499999999999976       0.4292893218813445       0.520710678118655
-1.3499999999999976       0.4292893218813445       0.520710678118655
-1.3499999999999979       0.42310305254803415      0.32596260046893194
-1.3499999999999976       0.47024350462713727      0.2788221483898287
-1.3499999999999979       0.37596260046893093      0.3731030525480351
-1.3499999999999979       0.5179713823530837       -0.42083093027398344
-1.3499999999999979       0.5651118344321874       -0.3736904781948808
-1.349999999999998        0.47083093027398         -0.46797138235308616
-1.3499999999999976       0.4708309302739824       0.46797138235308644
-1.3499999999999974       0.5179713823530855       0.4208309302739832
-1.3499999999999976       0.5651118344321887       0.37369047819488005
-1.2499999999999978       0.5707106781186526       -0.37928932188134623
-1.3499999999999979       0.5707106781186526       -0.37928932188134623
-1.249999999999998        0.5494974746830565       -0.35807611844574955
-1.249999999999998        0.5282842712474604       -0.33686291501015286
-1.249999999999998        0.5070710678118642       -0.3156497115745562
-1.249999999999998        0.485857864376268        -0.2944365081389595
-1.3499999999999979       0.4646446609406717       -0.2732233047033628
-1.2499999999999978       0.4646446609406717       -0.2732233047033628
-1.3499999999999976       0.4646446609406719       0.27322330470336337
-1.2499999999999976       0.4646446609406719       0.27322330470336337
-1.2499999999999978       0.4858578643762684       0.2944365081389598
-1.2499999999999976       0.5070710678118648       0.3156497115745561
-1.2499999999999978       0.5282842712474612       0.33686291501015264
-1.2499999999999976       0.5494974746830577       0.35807611844574905
-1.3499999999999976       0.5707106781186541       0.3792893218813455
-1.2499999999999976       0.5707106781186541       0.3792893218813455
-1.3499999999999974       -0.47642977396044905     -0.47357022603955184
-1.3499999999999979       -0.5235702260395524      -0.42642977396044873
-1.2499999999999976       -0.47642977396044905     -0.47357022603955184
-1.2499999999999978       -0.5235702260395524      -0.42642977396044873
-1.3499999999999976       -0.4764297739604494      0.4735702260395515
-1.3499999999999976       -0.5235702260395526      0.4264297739604484
-1.2499999999999973       -0.4764297739604494      0.4735702260395515
-1.2499999999999976       -0.5235702260395526      0.4264297739604484
-1.3499999999999976       -0.370363756782467       -0.3675042088615697
-1.3499999999999976       -0.4175042088615702      -0.32036375678246654
-1.3499999999999976       -0.4175042088615705      0.32036375678246626
-1.3499999999999976       -0.37036375678246736     0.3675042088615694
-1.2499999999999973       -0.370363756782467       -0.3675042088615697
-1.2499999999999976       -0.4175042088615702      -0.32036375678246654
-1.249999999999998        -0.4175042088615705      0.3203637567824663
-1.2499999999999976       -0.37036375678246736     0.3675042088615695
-1.3499999999999974       0.37036375678246414      -0.3675042088615681
-1.3499999999999976       0.41750420886156797      -0.3203637567824655
-1.2499999999999978       0.37036375678246425      -0.3675042088615681
-1.2499999999999978       0.4175042088615681       -0.32036375678246554
-1.3499999999999974       0.4175042088615687       0.32036375678246654
-1.3499999999999979       0.3703637567824656       0.36750420886156976
-1.2499999999999973       0.3703637567824656       0.3675042088615697
-1.2499999999999976       0.4175042088615688       0.32036375678246654
-1.349999999999998        0.4764297739604453       -0.47357022603955157
-1.3499999999999979       0.523570226039549        -0.4264297739604489
-1.3499999999999976       0.5235702260395508       0.42642977396044873
-1.3499999999999979       0.4764297739604477       0.473570226039552
-1.2499999999999978       0.4764297739604453       -0.47357022603955157
-1.2499999999999978       0.523570226039549        -0.4264297739604489
-1.2499999999999976       0.5235702260395508       0.42642977396044873
-1.2499999999999976       0.4764297739604477       0.473570226039552
-1.3519987348293225       0.27474810954206014      0.7810938204021447
-1.3305662432702579       0.24999999999999922      0.7934678751731752
-1.3305662432702579       0.28499999999999925      0.7934678751731752
-1.3519987348293225       0.2252518904579383       0.7810938204021447
-1.3608771324027131       0.24999999999999922      0.775967875173175
-1.3305662432702579       0.21499999999999922      0.7934678751731752
-1.3091337517111932       0.2252518904579383       0.8058419299442057
-1.3002553541378024       0.2499999999999992       0.8109678751731753
-1.309133751711193        0.27474810954206014      0.8058419299442057
-1.2805662432702574       0.28499999999999925      0.7068653347947315
-1.3019987348293223       0.2747481095420602       0.6944912800237009
-1.3108771324027129       0.24999999999999936      0.6893653347947313
-1.301998734829322        0.22525189045793834      0.6944912800237006
-1.2805662432702574       0.21499999999999922      0.7068653347947315
-1.2591337517111927       0.22525189045793848      0.7192393895657619
-1.2502553541378023       0.2499999999999992       0.7243653347947315
-1.2591337517111927       0.27474810954205997      0.7192393895657619
-1.3102584729809739       0.22007902331715         0.6781755125946167
-1.3188675134594794       0.19999999999999923      0.6732050807568869
-1.2932541463862695       0.20436180600496776      0.6879929651314572
-1.3188675134594794       0.24999999999999922      0.6732050807568868
-1.2937053512285666       0.19999999999999923      0.6877324618942975
-1.2755662432702575       0.19999999999999923      0.698205080756887
-1.3038826075568921       0.2632636618566682       0.6472504623869672
-1.3188675134594794       0.2999999999999992       0.6732050807568869
-1.2991079378302672       0.2307766497165242       0.6389804918310921
-1.299604566356073        0.19999999999999923      0.6398406776702755
-1.2768796929263664       0.19999999999999923      0.6004800422944521
-1.2993338639841088       0.29999999999999916      0.6393718074083047
-1.2846963456996034       0.25873249619266087      0.6140188820428226
-1.2654217375302916       0.2503246964273588       0.5806342813975931
-1.2477350269189609       0.19999999999999923      0.5500000000000002
-1.2763421153062011       0.2999999999999992       0.599548930543314
-1.247735026918961        0.2505638213962948       0.5500000000000003
-1.2477350269189609       0.2999999999999992       0.5500000000000002
-1.2831115646767917       0.19999999999999923      0.6683138934563734
-1.2574271353119486       0.19999999999999926      0.7086776996194767
-1.253837004207635        0.19999999999999923      0.68771249444475
-1.237690738227745        0.19999999999999923      0.6939614672335982
-1.2322649730810358       0.19999999999999923      0.7232050807568873
-1.2640712697523473       0.19999999999999923      0.671374610503312
-1.2677185017742714       0.19999999999999923      0.640901155449396
-1.2357223548539367       0.19999999999999923      0.664855190029388
-1.2147395062041706       0.19999999999999923      0.6928500816997916
-1.2243038976587914       0.19999999999999923      0.6123111610740071
-1.1925205647372852       0.19999999999999923      0.6543657461887478
-1.1643466957639086       0.19999999999999923      0.6055671736810717
-1.1923187267872986       0.19999999999999923      0.5500000000000002
-1.1322649730810352       0.19999999999999923      0.5500000000000002
-1.2932541463862697       0.29563819399503066      0.6879929651314574
-1.2755662432702575       0.2999999999999992       0.698205080756887
-1.2937053512285663       0.2999999999999992       0.6877324618942974
-1.3102584729809736       0.2799209766828483       0.6781755125946165
-1.299093470575149        0.20480924632245526      0.6961686351229147
-1.2805662432702576       0.19999999999999923      0.7068653347947313
-1.3159344980260648       0.2788463527595412       0.6864454633906987
-1.299093470575149        0.2951907536775431       0.6961686351229147
-1.2805662432702576       0.2999999999999992       0.7068653347947313
-1.3238675134594795       0.2499999999999994       0.6818653347947311
-1.3159344980260648       0.22115364724045725      0.6864454633906986
-1.2574271353119486       0.2999999999999992       0.7086776996194766
-1.2322649730810358       0.2999999999999992       0.7232050807568873
-1.246455528746646        0.2999999999999992       0.6910205287641397
-1.2961432137231226       0.2999999999999992       0.6704891929515082
-1.2590903331042624       0.2999999999999992       0.6763670251897604
-1.2780233173513673       0.2999999999999992       0.6666939058812331
-1.2146779939065366       0.2999999999999992       0.6927435392749992
-1.2378350453929594       0.2999999999999992       0.6750341029769383
-1.2516318832942932       0.2999999999999992       0.6406656795975062
-1.1924126969875894       0.2999999999999992       0.6541789137657763
-1.2208126060002906       0.2999999999999992       0.5988646708234083
-1.1643176250124154       0.29999999999999916      0.6055168216624712
-1.1927692887975239       0.2999999999999992       0.5500000000000002
-1.1322649730810355       0.2999999999999992       0.5500000000000002
-1.2999999999999976       -0.09000000000000064     -0.019000000000000104
-1.2999999999999976       -0.09000000000000062     -0.05700000000000013
-1.2999999999999976       -0.15000000000000063     -0.019000000000000142
-1.2999999999999976       -0.15000000000000063     -0.05700000000000015
-1.2999999999999976       -0.1500000000000006      -0.09500000000000018
-1.2999999999999976       -0.09000000000000061     -0.09500000000000018
-1.2999999999999976       -0.03000000000000065     -0.05700000000000011
-1.2999999999999976       -0.03000000000000062     -0.09500000000000015
-1.2999999999999976       0.02999999999999943      -0.05700000000000009
-1.2999999999999976       0.029999999999999406     -0.09500000000000011
-1.2999999999999976       0.08999999999999937      -0.05700000000000009
-1.2999999999999976       0.08999999999999943      -0.0950000000000001
-1.2999999999999976       -0.030000000000000693    -0.019000000000000117
-1.2999999999999976       0.029999999999999333     -0.019000000000000104
-1.2999999999999976       -0.15000000000000066     0.01899999999999988
-1.2999999999999976       -0.09000000000000066     0.018999999999999895
-1.2999999999999976       -0.030000000000000675    0.01899999999999991
-1.2999999999999976       -0.09000000000000069     0.056999999999999905
-1.2999999999999976       -0.15000000000000066     0.05699999999999989
-1.2999999999999974       0.1499999999999994       -0.057000000000000085
-1.2999999999999976       0.14999999999999944      -0.09500000000000008
-1.2999999999999976       0.08999999999999929      -0.019000000000000076
-1.2999999999999974       0.14999999999999938      -0.019000000000000076
-1.2999999999999976       0.029999999999999322     0.018999999999999937
-1.2999999999999976       0.08999999999999933      0.01899999999999995
-1.2999999999999976       -0.030000000000000686    0.05699999999999993
-1.2999999999999976       0.02999999999999936      0.0569999999999999
-1.2999999999999976       -0.1500000000000007      0.09499999999999989
-1.2999999999999976       -0.0900000000000007      0.09499999999999989
-1.2999999999999976       -0.030000000000000675    0.09499999999999992
-1.2999999999999976       0.14999999999999944      0.018999999999999944
-1.2999999999999976       0.0899999999999994       0.056999999999999905
-1.2999999999999976       0.14999999999999938      0.056999999999999953
-1.2999999999999976       0.029999999999999333     0.09499999999999993
-1.2999999999999976       0.08999999999999934      0.09499999999999996
-1.2999999999999976       0.14999999999999938      0.09499999999999997
-1.283333333333331        -0.15000000000000063     -0.01900000000000016
-1.283333333333331        -0.15000000000000066     0.01899999999999988
-1.283333333333331        -0.15000000000000066     0.0569999999999999
-1.283333333333331        -0.15000000000000063     -0.057000000000000176
-1.283333333333331        -0.1500000000000006      -0.09500000000000018
-1.2666666666666644       -0.15000000000000066     0.01899999999999988
-1.2666666666666644       -0.15000000000000066     0.0569999999999999
-1.283333333333331        -0.1500000000000007      0.09499999999999989
-1.2666666666666644       -0.15000000000000072     0.0949999999999999
-1.2666666666666644       -0.15000000000000063     -0.01900000000000013
-1.2666666666666644       -0.15000000000000063     -0.057000000000000155
-1.2666666666666644       -0.15000000000000063     -0.09500000000000021
-1.2499999999999976       -0.15000000000000066     0.01899999999999988
-1.2499999999999976       -0.15000000000000063     -0.019000000000000142
-1.2499999999999976       -0.15000000000000066     0.05699999999999989
-1.2499999999999976       -0.1500000000000007      0.09499999999999989
-1.2499999999999976       -0.15000000000000063     -0.05700000000000015
-1.2499999999999976       -0.1500000000000006      -0.09500000000000018
-1.283333333333331        -0.0900000000000006      -0.09500000000000017
-1.283333333333331        -0.030000000000000616    -0.09500000000000014
-1.283333333333331        0.029999999999999395     -0.09500000000000013
-1.283333333333331        0.0899999999999994       -0.0950000000000001
-1.283333333333331        0.1499999999999994       -0.09500000000000008
-1.2666666666666646       -0.09000000000000057     -0.09500000000000017
-1.2666666666666646       -0.030000000000000616    -0.09500000000000014
-1.2666666666666644       0.029999999999999426     -0.09500000000000013
-1.2666666666666644       0.08999999999999943      -0.0950000000000001
-1.2666666666666644       0.1499999999999995       -0.0950000000000001
-1.2499999999999978       -0.09000000000000061     -0.09500000000000018
-1.2499999999999973       0.029999999999999406     -0.09500000000000011
-1.2499999999999978       -0.03000000000000062     -0.09500000000000015
-1.2499999999999976       0.08999999999999943      -0.0950000000000001
-1.2499999999999976       0.14999999999999944      -0.09500000000000008
-1.283333333333331        -0.0900000000000007      0.09499999999999989
-1.283333333333331        -0.0300000000000007      0.09499999999999992
-1.283333333333331        0.02999999999999934      0.09499999999999993
-1.2666666666666644       -0.09000000000000073     0.09499999999999989
-1.2666666666666646       -0.0300000000000007      0.09499999999999992
-1.283333333333331        0.08999999999999934      0.09499999999999996
-1.283333333333331        0.14999999999999938      0.09499999999999997
-1.2666666666666644       0.02999999999999934      0.09499999999999993
-1.2666666666666644       0.08999999999999934      0.09499999999999996
-1.2499999999999976       -0.0900000000000007      0.09499999999999989
-1.2499999999999978       -0.030000000000000675    0.09499999999999992
-1.2499999999999976       0.029999999999999333     0.09499999999999993
-1.2666666666666644       0.1499999999999994       0.09499999999999999
-1.2499999999999976       0.08999999999999934      0.09499999999999996
-1.2499999999999976       0.14999999999999938      0.09499999999999997
-1.2999999999999976       -0.03250000000000072     0.2825000000000004
-1.2999999999999976       0.032499999999999286     0.28250000000000036
-1.2999999999999976       -0.03250000000000071     0.2175000000000004
-1.2999999999999976       0.0324999999999993       0.21750000000000042
-1.283333333333331        -0.0325000000000007      0.2175000000000004
-1.283333333333331        -0.032500000000000716    0.2825000000000004
-1.2666666666666644       -0.03250000000000072     0.2825000000000005
-1.2666666666666644       -0.03250000000000071     0.21750000000000044
-1.2499999999999976       -0.032500000000000716    0.2825000000000004
-1.2499999999999976       -0.0325000000000007      0.2175000000000004
-1.283333333333331        0.03249999999999931      0.21750000000000042
-1.2666666666666644       0.03249999999999932      0.2175000000000005
-1.2499999999999976       0.032499999999999314     0.21750000000000042
-1.283333333333331        0.03249999999999929      0.2825000000000003
-1.2666666666666644       0.0324999999999993       0.2825000000000005
-1.2499999999999976       0.0324999999999993       0.28250000000000036
-1.2999999999999976       -0.0325000000000007      0.43250000000000016
-1.2999999999999976       0.032499999999999314     0.43250000000000016
-1.2999999999999976       -0.032500000000000674    0.3675000000000001
-1.2999999999999976       0.03249999999999934      0.3675000000000001
-1.283333333333331        -0.03250000000000071     0.43250000000000016
-1.283333333333331        -0.03250000000000068     0.3675000000000001
-1.2666666666666644       -0.03250000000000073     0.4325000000000003
-1.2666666666666644       -0.0325000000000007      0.36750000000000016
-1.2499999999999976       -0.03250000000000073     0.43250000000000016
-1.2499999999999976       -0.0325000000000007      0.3675000000000001
-1.283333333333331        0.032499999999999335     0.3675000000000001
-1.2666666666666644       0.03249999999999934      0.36750000000000016
-1.2499999999999976       0.032499999999999314     0.3675000000000001
-1.283333333333331        0.03249999999999931      0.43250000000000016
-1.2666666666666644       0.03249999999999931      0.4325000000000003
-1.2499999999999976       0.032499999999999286     0.43250000000000016
-1.2833333333333308       0.14999999999999944      -0.05700000000000009
-1.2833333333333308       0.1499999999999994       -0.019000000000000076
-1.283333333333331        0.1499999999999994       0.01899999999999995
-1.2666666666666644       0.14999999999999944      -0.05700000000000009
-1.2666666666666644       0.1499999999999994       -0.019000000000000076
-1.283333333333331        0.14999999999999938      0.05699999999999993
-1.2666666666666644       0.1499999999999994       0.018999999999999937
-1.2666666666666644       0.14999999999999938      0.056999999999999953
-1.2499999999999973       0.1499999999999994       -0.057000000000000085
-1.2499999999999973       0.14999999999999938      -0.019000000000000076
-1.2499999999999976       0.14999999999999944      0.018999999999999944
-1.2499999999999976       0.14999999999999938      0.056999999999999953
-1.262039015965366        0.20480924632245529      0.7175620344665479
-1.2451979885144504       0.22115364724045727      0.727285206198764
-1.2372649730810357       0.2499999999999992       0.7318653347947316
-1.2620390159653663       0.2951907536775431       0.717562034466548
-1.2451979885144502       0.2788463527595411       0.727285206198764
-1.2578783401542455       0.2043618060049677       0.7084171963823167
-1.257878340154245        0.2956381939950306       0.7084171963823168
-1.2408740135595415       0.22007902331714987      0.7182346489191576
-1.2322649730810358       0.24999999999999922      0.7232050807568872
-1.240874013559541        0.2799209766828482       0.7182346489191574
-1.2499999999999976       0.5999999999999992       0.5599999999999999
-1.2499999999999976       0.5999999999999992       0.5499999999999999
-1.2499999999999976       0.5806462007443197       0.5599999999999999
-1.2499999999999976       0.5781079706615031       0.5499999999999999
-1.249999999999998        0.5552676020775658       0.56
-1.2499999999999973       0.5512950874445472       0.5499999999999998
-1.2499999999999973       0.48499999999999904      0.628851080456644
-1.2499999999999976       0.4749999999999992       0.6265190324639298
-1.2499999999999976       0.4749999999999992       0.6499999999999999
-1.2499999999999976       0.4849999999999991       0.6499999999999999
-1.2499999999999976       0.4849999999999992       0.6016268441988715
-1.2499999999999973       0.4749999999999991       0.5936371372064907
-1.2499999999999976       0.48499999999999915      0.5599999999999999
-1.2499999999999978       0.517833534114667        0.5499999999999999
-1.2499999999999976       0.4749999999999992       0.5499999999999999
-1.2499999999999973       0.5240044775036586       0.5599999999999998
-1.2219264734706967       0.4749999999999992       0.5821464376573758
-1.204583549605562        0.4749999999999992       0.5499999999999999
-1.2314338501923392       0.4749999999999992       0.6396499391438826
-1.220326992678814        0.4749999999999992       0.6099721009658079
-1.2312288431635972       0.4749999999999992       0.6687711568364004
-1.1610133433026544       0.4749999999999992       0.5499999999999999
-1.1818315485912896       0.4749999999999992       0.594499662329924
-1.0768678662758517       0.47499999999999926      0.5661630992674732
-1.0877642386249053       0.47499999999999915      0.5499999999999998
-1.0660551336031545       0.4749999999999993       0.5499999999999999
-1.058695639325161        0.47499999999999926      0.5601760533137893
-1.0499999999999976       0.47500000000000003      0.5499999999999999
-1.0499999999999976       0.47500000000000003      0.5599999999999999
-1.197773023558939        0.4749999999999992       0.6464100919002506
-1.1999999999999977       0.4749999999999992       0.6999999999999997
-1.1573604206678296       0.4749999999999992       0.6281520510188502
-1.136349982314328        0.4749999999999992       0.5825505809034418
-1.1198800296093063       0.4749999999999992       0.5499999999999999
-1.1068242035450517       0.4749999999999992       0.5743580358879209
-1.0855986279678094       0.47499999999999926      0.586946146999123
-1.065121475972523        0.47499999999999926      0.5785095069429489
-1.0499999999999976       0.4749999999999992       0.5717061020812348
-1.0740152328737953       0.47499999999999926      0.6038841285621058
-1.167910835991272        0.4749999999999992       0.6904016992771199
-1.1687711568363983       0.47499999999999926      0.7312288431635993
-1.1467722603171193       0.4749999999999992       0.7181555881266214
-1.1229794782439917       0.4749999999999992       0.6499371147493934
-1.105160302955218        0.4749999999999992       0.6091804344021647
-1.0499999999999976       0.47499999999999926      0.5900106908545255
-1.1499999999999975       0.47499999999999915      0.7499999999999999
-1.0861461557524337       0.47499999999999926      0.6329136829158168
-1.0499999999999976       0.47499999999999926      0.6180004979376791